<?xml version="1.0"?>
<VTKFile type="UnstructuredGrid"  version="0.1"  >
<UnstructuredGrid>
<Piece  NumberOfPoints="10201" NumberOfCells="20000">
<Points>
<DataArray  type="Float64"  NumberOfComponents="3"  format="ascii">0 0 0  0.25 0 0  0.5 0 0  0.75 0 0  1 0 0  1.25 0 0  1.5 0 0  1.75 0 0  2 0 0  2.25 0 0  2.5 0 0  2.75 0 0  3 0 0  3.25 0 0  3.5 0 0  3.75 0 0  4 0 0  4.25 0 0  4.5 0 0  4.75 0 0  5 0 0  5.25 0 0  5.5 0 0  5.75 0 0  6 0 0  6.25 0 0  6.5 0 0  6.75 0 0  7 0 0  7.25 0 0  7.5 0 0  7.75 0 0  8 0 0  8.25 0 0  8.5 0 0  8.75 0 0  9 0 0  9.25 0 0  9.5 0 0  9.75 0 0  10 0 0  10.25 0 0  10.5 0 0  10.75 0 0  11 0 0  11.25 0 0  11.5 0 0  11.75 0 0  12 0 0  12.25 0 0  12.5 0 0  12.75 0 0  13 0 0  13.25 0 0  13.5 0 0  13.75 0 0  14 0 0  14.25 0 0  14.5 0 0  14.75 0 0  15 0 0  15.25 0 0  15.5 0 0  15.75 0 0  16 0 0  16.25 0 0  16.5 0 0  16.75 0 0  17 0 0  17.25 0 0  17.5 0 0  17.75 0 0  18 0 0  18.25 0 0  18.5 0 0  18.75 0 0  19 0 0  19.25 0 0  19.5 0 0  19.75 0 0  20 0 0  20.25 0 0  20.5 0 0  20.75 0 0  21 0 0  21.25 0 0  21.5 0 0  21.75 0 0  22 0 0  22.25 0 0  22.5 0 0  22.75 0 0  23 0 0  23.25 0 0  23.5 0 0  23.75 0 0  24 0 0  24.25 0 0  24.5 0 0  24.75 0 0  25 0 0  0 0.25 0  0.25 0.25 0  0.5 0.25 0  0.75 0.25 0  1 0.25 0  1.25 0.25 0  1.5 0.25 0  1.75 0.25 0  2 0.25 0  2.25 0.25 0  2.5 0.25 0  2.75 0.25 0  3 0.25 0  3.25 0.25 0  3.5 0.25 0  3.75 0.25 0  4 0.25 0  4.25 0.25 0  4.5 0.25 0  4.75 0.25 0  5 0.25 0  5.25 0.25 0  5.5 0.25 0  5.75 0.25 0  6 0.25 0  6.25 0.25 0  6.5 0.25 0  6.75 0.25 0  7 0.25 0  7.25 0.25 0  7.5 0.25 0  7.75 0.25 0  8 0.25 0  8.25 0.25 0  8.5 0.25 0  8.75 0.25 0  9 0.25 0  9.25 0.25 0  9.5 0.25 0  9.75 0.25 0  10 0.25 0  10.25 0.25 0  10.5 0.25 0  10.75 0.25 0  11 0.25 0  11.25 0.25 0  11.5 0.25 0  11.75 0.25 0  12 0.25 0  12.25 0.25 0  12.5 0.25 0  12.75 0.25 0  13 0.25 0  13.25 0.25 0  13.5 0.25 0  13.75 0.25 0  14 0.25 0  14.25 0.25 0  14.5 0.25 0  14.75 0.25 0  15 0.25 0  15.25 0.25 0  15.5 0.25 0  15.75 0.25 0  16 0.25 0  16.25 0.25 0  16.5 0.25 0  16.75 0.25 0  17 0.25 0  17.25 0.25 0  17.5 0.25 0  17.75 0.25 0  18 0.25 0  18.25 0.25 0  18.5 0.25 0  18.75 0.25 0  19 0.25 0  19.25 0.25 0  19.5 0.25 0  19.75 0.25 0  20 0.25 0  20.25 0.25 0  20.5 0.25 0  20.75 0.25 0  21 0.25 0  21.25 0.25 0  21.5 0.25 0  21.75 0.25 0  22 0.25 0  22.25 0.25 0  22.5 0.25 0  22.75 0.25 0  23 0.25 0  23.25 0.25 0  23.5 0.25 0  23.75 0.25 0  24 0.25 0  24.25 0.25 0  24.5 0.25 0  24.75 0.25 0  25 0.25 0  0 0.5 0  0.25 0.5 0  0.5 0.5 0  0.75 0.5 0  1 0.5 0  1.25 0.5 0  1.5 0.5 0  1.75 0.5 0  2 0.5 0  2.25 0.5 0  2.5 0.5 0  2.75 0.5 0  3 0.5 0  3.25 0.5 0  3.5 0.5 0  3.75 0.5 0  4 0.5 0  4.25 0.5 0  4.5 0.5 0  4.75 0.5 0  5 0.5 0  5.25 0.5 0  5.5 0.5 0  5.75 0.5 0  6 0.5 0  6.25 0.5 0  6.5 0.5 0  6.75 0.5 0  7 0.5 0  7.25 0.5 0  7.5 0.5 0  7.75 0.5 0  8 0.5 0  8.25 0.5 0  8.5 0.5 0  8.75 0.5 0  9 0.5 0  9.25 0.5 0  9.5 0.5 0  9.75 0.5 0  10 0.5 0  10.25 0.5 0  10.5 0.5 0  10.75 0.5 0  11 0.5 0  11.25 0.5 0  11.5 0.5 0  11.75 0.5 0  12 0.5 0  12.25 0.5 0  12.5 0.5 0  12.75 0.5 0  13 0.5 0  13.25 0.5 0  13.5 0.5 0  13.75 0.5 0  14 0.5 0  14.25 0.5 0  14.5 0.5 0  14.75 0.5 0  15 0.5 0  15.25 0.5 0  15.5 0.5 0  15.75 0.5 0  16 0.5 0  16.25 0.5 0  16.5 0.5 0  16.75 0.5 0  17 0.5 0  17.25 0.5 0  17.5 0.5 0  17.75 0.5 0  18 0.5 0  18.25 0.5 0  18.5 0.5 0  18.75 0.5 0  19 0.5 0  19.25 0.5 0  19.5 0.5 0  19.75 0.5 0  20 0.5 0  20.25 0.5 0  20.5 0.5 0  20.75 0.5 0  21 0.5 0  21.25 0.5 0  21.5 0.5 0  21.75 0.5 0  22 0.5 0  22.25 0.5 0  22.5 0.5 0  22.75 0.5 0  23 0.5 0  23.25 0.5 0  23.5 0.5 0  23.75 0.5 0  24 0.5 0  24.25 0.5 0  24.5 0.5 0  24.75 0.5 0  25 0.5 0  0 0.75 0  0.25 0.75 0  0.5 0.75 0  0.75 0.75 0  1 0.75 0  1.25 0.75 0  1.5 0.75 0  1.75 0.75 0  2 0.75 0  2.25 0.75 0  2.5 0.75 0  2.75 0.75 0  3 0.75 0  3.25 0.75 0  3.5 0.75 0  3.75 0.75 0  4 0.75 0  4.25 0.75 0  4.5 0.75 0  4.75 0.75 0  5 0.75 0  5.25 0.75 0  5.5 0.75 0  5.75 0.75 0  6 0.75 0  6.25 0.75 0  6.5 0.75 0  6.75 0.75 0  7 0.75 0  7.25 0.75 0  7.5 0.75 0  7.75 0.75 0  8 0.75 0  8.25 0.75 0  8.5 0.75 0  8.75 0.75 0  9 0.75 0  9.25 0.75 0  9.5 0.75 0  9.75 0.75 0  10 0.75 0  10.25 0.75 0  10.5 0.75 0  10.75 0.75 0  11 0.75 0  11.25 0.75 0  11.5 0.75 0  11.75 0.75 0  12 0.75 0  12.25 0.75 0  12.5 0.75 0  12.75 0.75 0  13 0.75 0  13.25 0.75 0  13.5 0.75 0  13.75 0.75 0  14 0.75 0  14.25 0.75 0  14.5 0.75 0  14.75 0.75 0  15 0.75 0  15.25 0.75 0  15.5 0.75 0  15.75 0.75 0  16 0.75 0  16.25 0.75 0  16.5 0.75 0  16.75 0.75 0  17 0.75 0  17.25 0.75 0  17.5 0.75 0  17.75 0.75 0  18 0.75 0  18.25 0.75 0  18.5 0.75 0  18.75 0.75 0  19 0.75 0  19.25 0.75 0  19.5 0.75 0  19.75 0.75 0  20 0.75 0  20.25 0.75 0  20.5 0.75 0  20.75 0.75 0  21 0.75 0  21.25 0.75 0  21.5 0.75 0  21.75 0.75 0  22 0.75 0  22.25 0.75 0  22.5 0.75 0  22.75 0.75 0  23 0.75 0  23.25 0.75 0  23.5 0.75 0  23.75 0.75 0  24 0.75 0  24.25 0.75 0  24.5 0.75 0  24.75 0.75 0  25 0.75 0  0 1 0  0.25 1 0  0.5 1 0  0.75 1 0  1 1 0  1.25 1 0  1.5 1 0  1.75 1 0  2 1 0  2.25 1 0  2.5 1 0  2.75 1 0  3 1 0  3.25 1 0  3.5 1 0  3.75 1 0  4 1 0  4.25 1 0  4.5 1 0  4.75 1 0  5 1 0  5.25 1 0  5.5 1 0  5.75 1 0  6 1 0  6.25 1 0  6.5 1 0  6.75 1 0  7 1 0  7.25 1 0  7.5 1 0  7.75 1 0  8 1 0  8.25 1 0  8.5 1 0  8.75 1 0  9 1 0  9.25 1 0  9.5 1 0  9.75 1 0  10 1 0  10.25 1 0  10.5 1 0  10.75 1 0  11 1 0  11.25 1 0  11.5 1 0  11.75 1 0  12 1 0  12.25 1 0  12.5 1 0  12.75 1 0  13 1 0  13.25 1 0  13.5 1 0  13.75 1 0  14 1 0  14.25 1 0  14.5 1 0  14.75 1 0  15 1 0  15.25 1 0  15.5 1 0  15.75 1 0  16 1 0  16.25 1 0  16.5 1 0  16.75 1 0  17 1 0  17.25 1 0  17.5 1 0  17.75 1 0  18 1 0  18.25 1 0  18.5 1 0  18.75 1 0  19 1 0  19.25 1 0  19.5 1 0  19.75 1 0  20 1 0  20.25 1 0  20.5 1 0  20.75 1 0  21 1 0  21.25 1 0  21.5 1 0  21.75 1 0  22 1 0  22.25 1 0  22.5 1 0  22.75 1 0  23 1 0  23.25 1 0  23.5 1 0  23.75 1 0  24 1 0  24.25 1 0  24.5 1 0  24.75 1 0  25 1 0  0 1.25 0  0.25 1.25 0  0.5 1.25 0  0.75 1.25 0  1 1.25 0  1.25 1.25 0  1.5 1.25 0  1.75 1.25 0  2 1.25 0  2.25 1.25 0  2.5 1.25 0  2.75 1.25 0  3 1.25 0  3.25 1.25 0  3.5 1.25 0  3.75 1.25 0  4 1.25 0  4.25 1.25 0  4.5 1.25 0  4.75 1.25 0  5 1.25 0  5.25 1.25 0  5.5 1.25 0  5.75 1.25 0  6 1.25 0  6.25 1.25 0  6.5 1.25 0  6.75 1.25 0  7 1.25 0  7.25 1.25 0  7.5 1.25 0  7.75 1.25 0  8 1.25 0  8.25 1.25 0  8.5 1.25 0  8.75 1.25 0  9 1.25 0  9.25 1.25 0  9.5 1.25 0  9.75 1.25 0  10 1.25 0  10.25 1.25 0  10.5 1.25 0  10.75 1.25 0  11 1.25 0  11.25 1.25 0  11.5 1.25 0  11.75 1.25 0  12 1.25 0  12.25 1.25 0  12.5 1.25 0  12.75 1.25 0  13 1.25 0  13.25 1.25 0  13.5 1.25 0  13.75 1.25 0  14 1.25 0  14.25 1.25 0  14.5 1.25 0  14.75 1.25 0  15 1.25 0  15.25 1.25 0  15.5 1.25 0  15.75 1.25 0  16 1.25 0  16.25 1.25 0  16.5 1.25 0  16.75 1.25 0  17 1.25 0  17.25 1.25 0  17.5 1.25 0  17.75 1.25 0  18 1.25 0  18.25 1.25 0  18.5 1.25 0  18.75 1.25 0  19 1.25 0  19.25 1.25 0  19.5 1.25 0  19.75 1.25 0  20 1.25 0  20.25 1.25 0  20.5 1.25 0  20.75 1.25 0  21 1.25 0  21.25 1.25 0  21.5 1.25 0  21.75 1.25 0  22 1.25 0  22.25 1.25 0  22.5 1.25 0  22.75 1.25 0  23 1.25 0  23.25 1.25 0  23.5 1.25 0  23.75 1.25 0  24 1.25 0  24.25 1.25 0  24.5 1.25 0  24.75 1.25 0  25 1.25 0  0 1.5 0  0.25 1.5 0  0.5 1.5 0  0.75 1.5 0  1 1.5 0  1.25 1.5 0  1.5 1.5 0  1.75 1.5 0  2 1.5 0  2.25 1.5 0  2.5 1.5 0  2.75 1.5 0  3 1.5 0  3.25 1.5 0  3.5 1.5 0  3.75 1.5 0  4 1.5 0  4.25 1.5 0  4.5 1.5 0  4.75 1.5 0  5 1.5 0  5.25 1.5 0  5.5 1.5 0  5.75 1.5 0  6 1.5 0  6.25 1.5 0  6.5 1.5 0  6.75 1.5 0  7 1.5 0  7.25 1.5 0  7.5 1.5 0  7.75 1.5 0  8 1.5 0  8.25 1.5 0  8.5 1.5 0  8.75 1.5 0  9 1.5 0  9.25 1.5 0  9.5 1.5 0  9.75 1.5 0  10 1.5 0  10.25 1.5 0  10.5 1.5 0  10.75 1.5 0  11 1.5 0  11.25 1.5 0  11.5 1.5 0  11.75 1.5 0  12 1.5 0  12.25 1.5 0  12.5 1.5 0  12.75 1.5 0  13 1.5 0  13.25 1.5 0  13.5 1.5 0  13.75 1.5 0  14 1.5 0  14.25 1.5 0  14.5 1.5 0  14.75 1.5 0  15 1.5 0  15.25 1.5 0  15.5 1.5 0  15.75 1.5 0  16 1.5 0  16.25 1.5 0  16.5 1.5 0  16.75 1.5 0  17 1.5 0  17.25 1.5 0  17.5 1.5 0  17.75 1.5 0  18 1.5 0  18.25 1.5 0  18.5 1.5 0  18.75 1.5 0  19 1.5 0  19.25 1.5 0  19.5 1.5 0  19.75 1.5 0  20 1.5 0  20.25 1.5 0  20.5 1.5 0  20.75 1.5 0  21 1.5 0  21.25 1.5 0  21.5 1.5 0  21.75 1.5 0  22 1.5 0  22.25 1.5 0  22.5 1.5 0  22.75 1.5 0  23 1.5 0  23.25 1.5 0  23.5 1.5 0  23.75 1.5 0  24 1.5 0  24.25 1.5 0  24.5 1.5 0  24.75 1.5 0  25 1.5 0  0 1.75 0  0.25 1.75 0  0.5 1.75 0  0.75 1.75 0  1 1.75 0  1.25 1.75 0  1.5 1.75 0  1.75 1.75 0  2 1.75 0  2.25 1.75 0  2.5 1.75 0  2.75 1.75 0  3 1.75 0  3.25 1.75 0  3.5 1.75 0  3.75 1.75 0  4 1.75 0  4.25 1.75 0  4.5 1.75 0  4.75 1.75 0  5 1.75 0  5.25 1.75 0  5.5 1.75 0  5.75 1.75 0  6 1.75 0  6.25 1.75 0  6.5 1.75 0  6.75 1.75 0  7 1.75 0  7.25 1.75 0  7.5 1.75 0  7.75 1.75 0  8 1.75 0  8.25 1.75 0  8.5 1.75 0  8.75 1.75 0  9 1.75 0  9.25 1.75 0  9.5 1.75 0  9.75 1.75 0  10 1.75 0  10.25 1.75 0  10.5 1.75 0  10.75 1.75 0  11 1.75 0  11.25 1.75 0  11.5 1.75 0  11.75 1.75 0  12 1.75 0  12.25 1.75 0  12.5 1.75 0  12.75 1.75 0  13 1.75 0  13.25 1.75 0  13.5 1.75 0  13.75 1.75 0  14 1.75 0  14.25 1.75 0  14.5 1.75 0  14.75 1.75 0  15 1.75 0  15.25 1.75 0  15.5 1.75 0  15.75 1.75 0  16 1.75 0  16.25 1.75 0  16.5 1.75 0  16.75 1.75 0  17 1.75 0  17.25 1.75 0  17.5 1.75 0  17.75 1.75 0  18 1.75 0  18.25 1.75 0  18.5 1.75 0  18.75 1.75 0  19 1.75 0  19.25 1.75 0  19.5 1.75 0  19.75 1.75 0  20 1.75 0  20.25 1.75 0  20.5 1.75 0  20.75 1.75 0  21 1.75 0  21.25 1.75 0  21.5 1.75 0  21.75 1.75 0  22 1.75 0  22.25 1.75 0  22.5 1.75 0  22.75 1.75 0  23 1.75 0  23.25 1.75 0  23.5 1.75 0  23.75 1.75 0  24 1.75 0  24.25 1.75 0  24.5 1.75 0  24.75 1.75 0  25 1.75 0  0 2 0  0.25 2 0  0.5 2 0  0.75 2 0  1 2 0  1.25 2 0  1.5 2 0  1.75 2 0  2 2 0  2.25 2 0  2.5 2 0  2.75 2 0  3 2 0  3.25 2 0  3.5 2 0  3.75 2 0  4 2 0  4.25 2 0  4.5 2 0  4.75 2 0  5 2 0  5.25 2 0  5.5 2 0  5.75 2 0  6 2 0  6.25 2 0  6.5 2 0  6.75 2 0  7 2 0  7.25 2 0  7.5 2 0  7.75 2 0  8 2 0  8.25 2 0  8.5 2 0  8.75 2 0  9 2 0  9.25 2 0  9.5 2 0  9.75 2 0  10 2 0  10.25 2 0  10.5 2 0  10.75 2 0  11 2 0  11.25 2 0 
[...]
<PointData  Scalars="f_26"> 
<DataArray  type="Float64"  Name="f_26"  format="ascii">9.9995258334021231e-01  9.9994906860703325e-01  9.9993934500077331e-01  9.9992197354177503e-01  9.9989467489496620e-01  9.9985393760187324e-01  9.9979454386266797e-01  9.9970889513167438e-01  9.9958603854042094e-01  9.9941026708682545e-01  9.9915911530768897e-01  9.9880049750097177e-01  9.9828863041132432e-01  9.9755823597578785e-01  9.9651631871023827e-01  9.9503054133281055e-01  9.9291286777774579e-01  9.8989670214579262e-01  9.8560525390495457e-01  9.7950840645238269e-01  9.7086521847339091e-01  9.5864991450883630e-01  9.4146194083994028e-01  9.1742734192020747e-01  8.8411230067426194e-01  8.3849335885424270e-01  7.7706272345753979e-01  6.9618025739916789e-01  5.9278217805785105e-01  4.6545969696765277e-01  3.1568100496054879e-01  1.4861626959382337e-01  -2.7093833204636160e-02  -2.0090588096522335e-01  -3.6277008285312445e-01  -5.0527832224684965e-01  -6.2467976471590136e-01  -7.2063056524909752e-01  -7.9517315327725124e-01  -8.5156921159729626e-01  -8.9338095493886138e-01  -9.2391344775170881e-01  -9.4596147503191530e-01  -9.6175344707257382e-01  -9.7299801735406011e-01  -9.8097078981076014e-01  -9.8660663408045723e-01  -9.9058192348557284e-01  -9.9338160725104963e-01  -9.9535118331783823e-01  -9.9673569848833188e-01  -9.9770840507707703e-01  -9.9839152185656621e-01  -9.9887113021308138e-01  -9.9920779116679648e-01  -9.9944407741188779e-01  -9.9960989941596468e-01  -9.9972626303344447e-01  -9.9980791626027399e-01  -9.9986521140288864e-01  -9.9990541417691381e-01  -9.9993362346877646e-01  -9.9995341728681442e-01  -9.9996730628134334e-01  -9.9997705209268939e-01  -9.9998389078176242e-01  -9.9998868962658238e-01  -9.9999205714875139e-01  -9.9999442031654584e-01  -9.9999607871459129e-01  -9.9999724255118161e-01  -9.9999805932513841e-01  -9.9999863253579568e-01  -9.9999903481027042e-01  -9.9999931711383527e-01  -9.9999951521216457e-01  -9.9999965420547443e-01  -9.9999975170988731e-01  -9.9999982008966637e-01  -9.9999986802352059e-01  -9.9999990160366981e-01  -9.9999992510707514e-01  -9.9999994153663907e-01  -9.9999995300099909e-01  -9.9999996098106314e-01  -9.9999996651706946e-01  -9.9999997033987487e-01  -9.9999997296310339e-01  -9.9999997474782742e-01  -9.9999997594797019e-01  -9.9999997674217600e-01  -9.9999997725618173e-01  -9.9999997757851833e-01  -9.9999997777152771e-01  -9.9999997787908779e-01  -9.9999997793201756e-01  -9.9999997795184359e-01  -9.9999997795338524e-01  -9.9999997794642748e-01  -9.9999997793645223e-01  -9.9999997792343476e-01  9.9995207801139041e-01  9.9994889376465534e-01  9.9993920321258645e-01  9.9992178396332609e-01  9.9989439775613664e-01  9.9985353368113461e-01  9.9979396138692922e-01  9.9970806132197521e-01  9.9958485017995058e-01  9.9940857795807048e-01  9.9915671887039170e-01  9.9879710299566971e-01  9.9828383020212619e-01  9.9755146162380604e-01  9.9650678330883080e-01  9.9501716665929096e-01  9.9289419806693369e-01  9.8987081414074929e-01  9.8556968954868529e-01  9.7946018718518935e-01  9.7080105868941635e-01  9.5856684680073212e-01  9.4135869673838501e-01  9.1730695640047244e-01  8.8398637943203273e-01  8.3838793107913223e-01  7.7702409607297374e-01  6.9627654365623370e-01  5.9309341061809173e-01  4.6605069146009015e-01  3.1656155164032201e-01  1.4971065143223841e-01  -2.5938813250381842e-02  -1.9986689213346992e-01  -3.6197815721809112e-01  -5.0477934581075445e-01  -6.2444211817111406e-01  -7.2058155140415747e-01  -7.9523548330555816e-01  -8.5168192969232248e-01  -8.9350482665984510e-01  -9.2402758229190274e-01  -9.4605734408509479e-01  -9.6182956678373843e-01  -9.7305627373128978e-01  -9.8101427369591021e-01  -9.8663853063423601e-01  -9.9060503321882964e-01  -9.9339820295396197e-01  -9.9536302468451432e-01  -9.9674410775303213e-01  -9.9771435612296189e-01  -9.9839572220901740e-01  -9.9887408895205587e-01  -9.9920987206758982e-01  -9.9944553912042522e-01  -9.9961092515420014e-01  -9.9972698223715295e-01  -9.9980842017777527e-01  -9.9986556425800022e-01  -9.9990566111540713e-01  -9.9993379619329137e-01  -9.9995353804115406e-01  -9.9996739066154205e-01  -9.9997711102701459e-01  -9.9998393192352086e-01  -9.9998871833284675e-01  -9.9999207716752314e-01  -9.9999443426886503e-01  -9.9999608843257359e-01  -9.9999724931490741e-01  -9.9999806402857938e-01  -9.9999863580298198e-01  -9.9999903707658733e-01  -9.9999931868289238e-01  -9.9999951629556116e-01  -9.9999965495059517e-01  -9.9999975221932236e-01  -9.9999982043477476e-01  -9.9999986825389942e-01  -9.9999990175376252e-01  -9.9999992520078074e-01  -9.9999994159052619e-01  -9.9999995302654598e-01  -9.9999996098621813e-01  -9.9999996650733736e-01  -9.9999997031907273e-01  -9.9999997293388654e-01  -9.9999997471205493e-01  -9.9999997590695788e-01  -9.9999997669687235e-01  -9.9999997720728906e-01  -9.9999997752657677e-01  -9.9999997771697247e-01  -9.9999997782228867e-01  -9.9999997787330808e-01  -9.9999997789154793e-01  -9.9999997789186723e-01  -9.9999997788425576e-01  -9.9999997787511130e-01  -9.9999997786868644e-01  9.9995189511537474e-01  9.9994878713765878e-01  9.9993912713543820e-01  9.9992170187223028e-01  9.9989428716327344e-01  9.9985337700143551e-01  9.9979373999318211e-01  9.9970775201172735e-01  9.9958442258307911e-01  9.9940799219915522e-01  9.9915592336721770e-01  9.9879603275480111e-01  9.9828240662317991e-01  9.9754959594063308e-01  9.9650438780824735e-01  9.9501418142571874e-01  9.9289064734439325e-01  9.8986691725735754e-01  9.8556606923635182e-01  9.7945824601218923e-01  9.7080363402708869e-01  9.5857930227598909e-01  9.4139064283482876e-01  9.1737475721679440e-01  8.8411637534975585e-01  8.3861969674172154e-01  7.7741189260087362e-01  6.9688560494739860e-01  5.9398697731925443e-01  4.6726616152241635e-01  3.1808173064844097e-01  1.5144597979923247e-01  -2.4139296873476070e-02  -1.9817318570884282e-01  -3.6052642252179801e-01  -5.0363813472717700e-01  -6.2361148253085341e-01  -7.2001584200758240e-01  -7.9487127305049132e-01  -8.5145827753368430e-01  -8.9337290153330684e-01  -9.2395247088009103e-01  -9.4601597598579612e-01  -9.6180754870819607e-01  -9.7304500978434494e-01  -9.8100880602693963e-01  -9.8663608329745689e-01  -9.9060409438624286e-01  -9.9339797280671815e-01  -9.9536309447305071e-01  -9.9674427818911537e-01  -9.9771453695264567e-01  -9.9839587788397277e-01  -9.9887420992953768e-01  -9.9920996008596652e-01  -9.9944559994486171e-01  -9.9961096522251458e-01  -9.9972700727968300e-01  -9.9980843479163906e-01  -9.9986557190890701e-01  -9.9990566430387751e-01  -9.9993379666061222e-01  -9.9995353696125289e-01  -9.9996738879988689e-01  -9.9997710886382130e-01  -9.9998392974522565e-01  -9.9998871629786223e-01  -9.9999207535226842e-01  -9.9999443269922250e-01  -9.9999608710488008e-01  -9.9999724820960367e-01  -9.9999806311881789e-01  -9.9999863505984443e-01  -9.9999903647207045e-01  -9.9999931819146315e-01  -9.9999951589482328e-01  -9.9999965462142537e-01  -9.9999975194571167e-01  -9.9999982020352185e-01  -9.9999986805424768e-01  -9.9999990157703267e-01  -9.9999992504002966e-01  -9.9999994144024307e-01  -9.9999995288239274e-01  -9.9999996084481124e-01  -9.9999996636606847e-01  -9.9999997017596332e-01  -9.9999997278747055e-01  -9.9999997456128498e-01  -9.9999997575113131e-01  -9.9999997653557149e-01  -9.9999997704033428e-01  -9.9999997735398805e-01  -9.9999997753893910e-01  -9.9999997763914472e-01  -9.9999997768551485e-01  -9.9999997769968729e-01  -9.9999997769665527e-01  -9.9999997768659810e-01  -9.9999997767619031e-01  -9.9999997766964488e-01  9.9995186398047253e-01  9.9994877930556025e-01  9.9993914523438321e-01  9.9992174197849448e-01  9.9989435035912977e-01  9.9985347149437687e-01  9.9979388216730924e-01  9.9970796888601587e-01  9.9958475654511481e-01  9.9940850891021582e-01  9.9915672432318814e-01  9.9879727495191706e-01  9.9828433325270727e-01  9.9755258431920091e-01  9.9650902430062649e-01  9.9502137860552287e-01  9.9290182698817386e-01  9.8988429510655518e-01  9.8559309480990809e-01  9.7950027305706644e-01  9.7086892095820720e-01  9.5868045525413381e-01  9.4154658764430876e-01  9.1761320055178863e-01  8.8447639367724085e-01  8.3915345705773747e-01  7.7818354278244162e-01  6.9796440996068732e-01  5.9543188013809722e-01  4.6910184943631306e-01  3.2027291747195746e-01  1.5388398989715360e-01  -2.1623418769072832e-02  -1.9576793102325507e-01  -3.5838947385163411e-01  -5.0186179023878708e-01  -6.2221706085089612e-01  -7.1897128186064985e-01  -7.9411675384000568e-01  -8.5092769216237618e-01  -8.9300666050491484e-01  -9.2370264231373156e-01  -9.4584666400202044e-01  -9.6169309223269550e-01  -9.7296760864450682e-01  -9.8095634278788402e-01  -9.8660039748174910e-01  -9.9057971824270319e-01  -9.9338124687127227e-01  -9.9535156565795857e-01  -9.9673629662275876e-01  -9.9770898814696585e-01  -9.9839200533018080e-01  -9.9887149752354543e-01  -9.9920805398063861e-01  -9.9944425638300571e-01  -9.9961001553444451e-01  -9.9972633426894364e-01  -9.9980795671573308e-01  -9.9986523155396789e-01  -9.9990542149556916e-01  -9.9993362310611911e-01  -9.9995341268118965e-01  -9.9996729965009645e-01  -9.9997704480779515e-01  -9.9998388364571800e-01  -9.9998868306904198e-01  -9.9999205136314162e-01  -9.9999441535275468e-01  -9.9999607454034822e-01  -9.9999723909162175e-01  -9.9999805648747986e-01  -9.9999863022406943e-01  -9.9999903293355408e-01  -9.9999931559035715e-01  -9.9999951397087072e-01  -9.9999965318611161e-01  -9.9999975086227788e-01  -9.9999981937260318e-01  -9.9999986740353797e-01  -9.9999990105383929e-01  -9.9999992460590292e-01  -9.9999994106709955e-01  -9.9999995254971219e-01  -9.9999996053760998e-01  -9.9999996607343100e-01  -9.9999996988997830e-01  -9.9999997250245887e-01  -9.9999997427323795e-01  -9.9999997545730179e-01  -9.9999997623417480e-01  -9.9999997673032770e-01  -9.9999997703490850e-01  -9.9999997721078127e-01  -9.9999997730226931e-01  -9.9999997734057922e-01  -9.9999997734759349e-01  -9.9999997733851120e-01  -9.9999997732368040e-01  -9.9999997730985557e-01  -9.9999997730102186e-01  9.9995193823434825e-01  9.9994886782025827e-01  9.9993926593568427e-01  9.9992191163574906e-01  9.9989459192877228e-01  9.9985381953448149e-01  9.9979438856560376e-01  9.9970871083882751e-01  9.9958584847420451e-01  9.9941012035344778e-01  9.9915910671659836e-01  9.9880080166336260e-01  9.9828955941282538e-01  9.9756033624744223e-01  9.9652053311208721e-01  9.9503847952601909e-01  9.9292725571629770e-01  9.8992212585098649e-01  9.8564938133504099e-01  9.7958397214587212e-01  9.7099319042208032e-01  9.5886440961655894e-01  9.4181753010859448e-01  9.1800916972128443e-01  8.8504848021624483e-01  8.3996667626202282e-01  7.7931413039637643e-01  6.9949064200010758e-01  5.9741596478464698e-01  4.7156369049671448e-01  3.2316325636297222e-01  1.5707146113929521e-01  -1.8337148042079934e-02  -1.9260409546037191e-01  -3.5553754793712972e-01  -4.9944030434601000e-01  -6.2026443065159809e-01  -7.1746210284838952e-01  -7.9298859856379744e-01  -8.5010535967645762e-01  -8.9241811357716727e-01  -9.2328673171925635e-01  -9.4555519216310935e-01  -9.6148985769455853e-01  -9.7282627494012186e-01  -9.8085814980698816e-01  -9.8653216241872088e-01  -9.9053225479132279e-01  -9.9334818391482416e-01  -9.9532849435872583e-01  -9.9672016763030225e-01  -9.9769769111639894e-01  -9.9838407784561023e-01  -9.9886592440659971e-01  -9.9920412913455015e-01  -9.9944148768267882e-01  -9.9960805928072505e-01  -9.9972494994083072e-01  -9.9980697567087273e-01  -9.9986453532979025e-01  -9.9990492673227260e-01  -9.9993327104739593e-01  -9.9995316184706373e-01  -9.9996712071300620e-01  -9.9997691700245628e-01  -9.9998379224903622e-01  -9.9998861762808466e-01  -9.9999200444708081e-01  -9.9999438167248789e-01  -9.9999605032656791e-01  -9.9999722165484539e-01  -9.9999804390638836e-01  -9.9999862112444937e-01  -9.9999902633131132e-01  -9.9999931077989745e-01  -9.9999951044564506e-01  -9.9999965058199380e-01  -9.9999974891717047e-01  -9.9999981789758952e-01  -9.9999986626225990e-01  -9.9999990014774076e-01  -9.9999992386366110e-01  -9.9999994043704798e-01  -9.9999995199440561e-01  -9.9999996002992053e-01  -9.9999996559374393e-01  -9.9999996942417335e-01  -9.9999997204045732e-01  -9.9999997380795480e-01  -9.9999997498388793e-01  -9.9999997574946753e-01  -9.9999997623245107e-01  -9.9999997652297901e-01  -9.9999997668469032e-01  -9.9999997676251939e-01  -9.9999997678815888e-01  -9.9999997678387753e-01  -9.9999997676517793e-01  -9.9999997674262786e-01  -9.9999997672309460e-01  -9.9999997671051766e-01  9.9995210302459148e-01  9.9994904822329211e-01  9.9993949076894950e-01  9.9992221358253242e-01  9.9989501382918788e-01  9.9985442169024663e-01  9.9979525803698510e-01  9.9970997439885767e-01  9.9958769136813064e-01  9.9941281378316438e-01  9.9916304822707858e-01  9.9880657452443222e-01  9.9829801991638556e-01  9.9757274193997258e-01  9.9653873083862277e-01  9.9506518035677949e-01  9.9296643493392045e-01  9.8997960045583944e-01  9.8573363421044657e-01  9.7970730780042625e-01  9.7117331330287993e-01  9.5912649299983221e-01  9.4219675400122094e-01  9.1855348644041568e-01  8.8582092797482370e-01  8.4104582779951553e-01  7.8079029356614138e-01  7.0145467162833997e-01  5.9993814490514219e-01  4.7466379328219355e-01  3.2678024861467520e-01  1.6104901231186172e-01  -1.4233561546441476e-02  -1.8863726895121496e-01  -3.5193587335680976e-01  -4.9635155056211772e-01  -6.1774305094446114e-01  -7.1548599828235082e-01  -7.9148904719143542e-01  -8.4899521758486918e-01  -8.9161119277364609e-01  -9.2270790497150679e-01  -9.4514378868948135e-01  -9.6119925080811341e-01  -9.7262180010310895e-01  -9.8071460699025237e-01  -9.8643150655001322e-01  -9.9046169311067500e-01  -9.9329870560446087e-01  -9.9529377756580617e-01  -9.9669578683428273e-01  -9.9768055138814571e-01  -9.9837201515469365e-01  -9.9885742504006381e-01  -9.9919813347654829e-01  -9.9943725326709154e-01  -9.9960506528929982e-01  -9.9972283060375378e-01  -9.9980547379796070e-01  -9.9986346985913566e-01  -9.9990417004338794e-01  -9.9993273308172892e-01  -9.9995277897932966e-01  -9.9996684794208024e-01  -9.9997672246472180e-01  -9.9998365335870798e-01  -9.9998851835877611e-01  -9.9999193341492076e-01  -9.9999433078290412e-01  -9.9999601381793157e-01  -9.9999719542186172e-01  -9.9999802502090107e-01  -9.9999860749571345e-01  -9.9999901646490053e-01  -9.9999930360644218e-01  -9.9999950519905811e-01  -9.9999964671280328e-01  -9.9999974603078123e-01  -9.9999981571026431e-01  -9.9999986456970635e-01  -9.9999989880267703e-01  -9.9999992275977878e-01  -9.9999993949754151e-01  -9.9999995116376017e-01  -9.9999995926802920e-01  -9.9999996487168985e-01  -9.9999996872120378e-01  -9.9999997134180940e-01  -9.9999997310329225e-01  -9.9999997426617349e-01  -9.9999997501414828e-01  -9.9999997547686592e-01  -9.9999997574592481e-01  -9.9999997588610134e-01  -9.9999997594322554e-01  -9.9999997594969980e-01  -9.9999997592835432e-01  -9.9999997589512868e-01  -9.9999997586091316e-01  -9.9999997583278388e-01  -9.9999997581477496e-01  9.9995235259304416e-01  9.9994931746951288e-01  9.9993981924516384e-01  9.9992264825497301e-01  9.9989561619599399e-01  9.9985527703548793e-01  9.9979648793288345e-01  9.9971175428657577e-01  9.9959027583130433e-01  9.9941657322157029e-01  9.9916852225259267e-01  9.9881454976954387e-01  9.9830964336964667e-01  9.9758968580630247e-01  9.9656343177570017e-01  9.9510118533999625e-01  9.9301889845504399e-01  9.9005599332612726e-01  9.8584474171294834e-01  9.7986861015866245e-01  9.7140684409243228e-01  9.5946323926954269e-01  9.4267955378560697e-01  9.1924012515175957e-01  8.8678663839823990e-01  8.4238357622868831e-01  7.8260615221360241e-01  7.0385473280212929e-01  6.0300410144348848e-01  4.7841840054881357e-01  3.3115221444702181e-01  1.6585571390552209e-01  -9.2671980212570889e-03  -1.8382167283988513e-01  -3.4754394167443547e-01  -4.9256363073374704e-01  -6.1463028809546250e-01  -7.1302829784395971e-01  -7.8960926633781314e-01  -8.4759220234338206e-01  -8.9058302336597772e-01  -9.2196444822069912e-01  -9.4461131506225093e-01  -9.6082041368028526e-01  -9.7235347685793361e-01  -9.8052510853987151e-01  -9.8629790976079423e-01  -9.9036759310598887e-01  -9.9323244695113733e-01  -9.9524711863508841e-01  -9.9666291750253899e-01  -9.9765738299083528e-01  -9.9835567308207174e-01  -9.9884588887158310e-01  -9.9918998299997075e-01  -9.9943148977407881e-01  -9.9960098605960557e-01  -9.9971994082535753e-01  -9.9980342477436346e-01  -9.9986201565193433e-01  -9.9990313703682898e-01  -9.9993199860464799e-01  -9.9995225627779083e-01  -9.9996647560739860e-01  -9.9997645698943038e-01  -9.9998346389030512e-01  -9.9998838299902970e-01  -9.9999183660703894e-01  -9.9999426146511372e-01  -9.9999596411748903e-01  -9.9999715973049708e-01  -9.9999799933971512e-01  -9.9999858897059646e-01  -9.9999900305677880e-01  -9.9999929385702468e-01  -9.9999949806428601e-01  -9.9999964144433606e-01  -9.9999974209159637e-01  -9.9999981271450400e-01  -9.9999986223977111e-01  -9.9999989693859892e-01  -9.9999992121734471e-01  -9.9999993817265476e-01  -9.9999994998125519e-01  -9.9999995817366572e-01  -9.9999996382641865e-01  -9.9999996769705679e-01  -9.9999997031895071e-01  -9.9999997206789926e-01  -9.9999997320891143e-01  -9.9999997392906825e-01  -9.9999997436060406e-01  -9.9999997459711698e-01  -9.9999997470494828e-01  -9.9999997473116642e-01  -9.9999997470915825e-01  -9.9999997466253698e-01  -9.9999997460785517e-01  -9.9999997455646783e-01  -9.9999997451577871e-01  -9.9999997449002376e-01  9.9995268416878791e-01  9.9994967355998332e-01  9.9994025033229761e-01  9.9992321499604442e-01  9.9989639803417529e-01  9.9985638356511675e-01  9.9979807449344438e-01  9.9971404396001540e-01  9.9959359096249267e-01  9.9942138092293897e-01  9.9917550029337265e-01  9.9882468204707597e-01  9.9832435815725551e-01  9.9761105561560715e-01  9.9659446151230657e-01  9.9514622607665615e-01  9.9308423809092994e-01  9.9015069261385946e-01  9.8598180314182093e-01  9.8006658319771056e-01  9.7169197169679655e-01  9.5987221279368840e-01  9.4326282000683603e-01  9.2006540185030750e-01  8.8794173514878794e-01  8.4397668886362687e-01  7.8476056855470300e-01  7.0669390164724799e-01  6.0662370750355010e-01  4.8284664170461222e-01  3.3630893848475590e-01  1.7153140110933118e-01  -3.3911403479094499e-03  -1.7810798783309598e-01  -3.4231495955359842e-01  -4.8803598158220046e-01  -6.1089356213576584e-01  -7.1006437564863889e-01  -7.8733144866972005e-01  -8.4588378950149701e-01  -8.8932490247157137e-01  -9.2105030622625106e-01  -9.4395351145800410e-01  -9.6035030063168791e-01  -9.7201909041595014e-01  -9.8028802039008167e-01  -9.8613015374591617e-01  -9.9024904070048436e-01  -9.9314872021767453e-01  -9.9518800001528507e-01  -9.9662117073338652e-01  -9.9762789441276700e-01  -9.9833483375687082e-01  -9.9883115356500962e-01  -9.9917955710624484e-01  -9.9942410785859359e-01  -9.9959575556534486e-01  -9.9971623191919901e-01  -9.9980079276814493e-01  -9.9986014637975185e-01  -9.9990180839349962e-01  -9.9993105345614308e-01  -9.9995158337291312e-01  -9.9996599612007586e-01  -9.9997611502482164e-01  -9.9998321978271743e-01  -9.9998820857733139e-01  -9.9999171184754043e-01  -9.9999417212355868e-01  -9.9999590005248062e-01  -9.9999711371556410e-01  -9.9999796622096293e-01  -9.9999856506894835e-01  -9.9999898574346491e-01  -9.9999928125187532e-01  -9.9999948882114154e-01  -9.9999963459830454e-01  -9.9999973695025346e-01  -9.9999980878033612e-01  -9.9999985915485357e-01  -9.9999989444510484e-01  -9.9999991912933928e-01  -9.9999993635593587e-01  -9.9999994833893735e-01  -9.9999995663586494e-01  -9.9999996234286748e-01  -9.9999996623181342e-01  -9.9999996884660491e-01  -9.9999997057084755e-01  -9.9999997167539600e-01  -9.9999997235176052e-01  -9.9999997273557562e-01  -9.9999997292308573e-01  -9.9999997298271848e-01  -9.9999997296320375e-01  -9.9999997289926112e-01  -9.9999997281557063e-01  -9.9999997272952923e-01  -9.9999997265314211e-01  -9.9999997259428597e-