<?xml version="1.0"?>
<VTKFile type="UnstructuredGrid"  version="0.1"  >
<UnstructuredGrid>
<Piece  NumberOfPoints="10201" NumberOfCells="20000">
<Points>
<DataArray  type="Float64"  NumberOfComponents="3"  format="ascii">0 0 0  0.25 0 0  0.5 0 0  0.75 0 0  1 0 0  1.25 0 0  1.5 0 0  1.75 0 0  2 0 0  2.25 0 0  2.5 0 0  2.75 0 0  3 0 0  3.25 0 0  3.5 0 0  3.75 0 0  4 0 0  4.25 0 0  4.5 0 0  4.75 0 0  5 0 0  5.25 0 0  5.5 0 0  5.75 0 0  6 0 0  6.25 0 0  6.5 0 0  6.75 0 0  7 0 0  7.25 0 0  7.5 0 0  7.75 0 0  8 0 0  8.25 0 0  8.5 0 0  8.75 0 0  9 0 0  9.25 0 0  9.5 0 0  9.75 0 0  10 0 0  10.25 0 0  10.5 0 0  10.75 0 0  11 0 0  11.25 0 0  11.5 0 0  11.75 0 0  12 0 0  12.25 0 0  12.5 0 0  12.75 0 0  13 0 0  13.25 0 0  13.5 0 0  13.75 0 0  14 0 0  14.25 0 0  14.5 0 0  14.75 0 0  15 0 0  15.25 0 0  15.5 0 0  15.75 0 0  16 0 0  16.25 0 0  16.5 0 0  16.75 0 0  17 0 0  17.25 0 0  17.5 0 0  17.75 0 0  18 0 0  18.25 0 0  18.5 0 0  18.75 0 0  19 0 0  19.25 0 0  19.5 0 0  19.75 0 0  20 0 0  20.25 0 0  20.5 0 0  20.75 0 0  21 0 0  21.25 0 0  21.5 0 0  21.75 0 0  22 0 0  22.25 0 0  22.5 0 0  22.75 0 0  23 0 0  23.25 0 0  23.5 0 0  23.75 0 0  24 0 0  24.25 0 0  24.5 0 0  24.75 0 0  25 0 0  0 0.25 0  0.25 0.25 0  0.5 0.25 0  0.75 0.25 0  1 0.25 0  1.25 0.25 0  1.5 0.25 0  1.75 0.25 0  2 0.25 0  2.25 0.25 0  2.5 0.25 0  2.75 0.25 0  3 0.25 0  3.25 0.25 0  3.5 0.25 0  3.75 0.25 0  4 0.25 0  4.25 0.25 0  4.5 0.25 0  4.75 0.25 0  5 0.25 0  5.25 0.25 0  5.5 0.25 0  5.75 0.25 0  6 0.25 0  6.25 0.25 0  6.5 0.25 0  6.75 0.25 0  7 0.25 0  7.25 0.25 0  7.5 0.25 0  7.75 0.25 0  8 0.25 0  8.25 0.25 0  8.5 0.25 0  8.75 0.25 0  9 0.25 0  9.25 0.25 0  9.5 0.25 0  9.75 0.25 0  10 0.25 0  10.25 0.25 0  10.5 0.25 0  10.75 0.25 0  11 0.25 0  11.25 0.25 0  11.5 0.25 0  11.75 0.25 0  12 0.25 0  12.25 0.25 0  12.5 0.25 0  12.75 0.25 0  13 0.25 0  13.25 0.25 0  13.5 0.25 0  13.75 0.25 0  14 0.25 0  14.25 0.25 0  14.5 0.25 0  14.75 0.25 0  15 0.25 0  15.25 0.25 0  15.5 0.25 0  15.75 0.25 0  16 0.25 0  16.25 0.25 0  16.5 0.25 0  16.75 0.25 0  17 0.25 0  17.25 0.25 0  17.5 0.25 0  17.75 0.25 0  18 0.25 0  18.25 0.25 0  18.5 0.25 0  18.75 0.25 0  19 0.25 0  19.25 0.25 0  19.5 0.25 0  19.75 0.25 0  20 0.25 0  20.25 0.25 0  20.5 0.25 0  20.75 0.25 0  21 0.25 0  21.25 0.25 0  21.5 0.25 0  21.75 0.25 0  22 0.25 0  22.25 0.25 0  22.5 0.25 0  22.75 0.25 0  23 0.25 0  23.25 0.25 0  23.5 0.25 0  23.75 0.25 0  24 0.25 0  24.25 0.25 0  24.5 0.25 0  24.75 0.25 0  25 0.25 0  0 0.5 0  0.25 0.5 0  0.5 0.5 0  0.75 0.5 0  1 0.5 0  1.25 0.5 0  1.5 0.5 0  1.75 0.5 0  2 0.5 0  2.25 0.5 0  2.5 0.5 0  2.75 0.5 0  3 0.5 0  3.25 0.5 0  3.5 0.5 0  3.75 0.5 0  4 0.5 0  4.25 0.5 0  4.5 0.5 0  4.75 0.5 0  5 0.5 0  5.25 0.5 0  5.5 0.5 0  5.75 0.5 0  6 0.5 0  6.25 0.5 0  6.5 0.5 0  6.75 0.5 0  7 0.5 0  7.25 0.5 0  7.5 0.5 0  7.75 0.5 0  8 0.5 0  8.25 0.5 0  8.5 0.5 0  8.75 0.5 0  9 0.5 0  9.25 0.5 0  9.5 0.5 0  9.75 0.5 0  10 0.5 0  10.25 0.5 0  10.5 0.5 0  10.75 0.5 0  11 0.5 0  11.25 0.5 0  11.5 0.5 0  11.75 0.5 0  12 0.5 0  12.25 0.5 0  12.5 0.5 0  12.75 0.5 0  13 0.5 0  13.25 0.5 0  13.5 0.5 0  13.75 0.5 0  14 0.5 0  14.25 0.5 0  14.5 0.5 0  14.75 0.5 0  15 0.5 0  15.25 0.5 0  15.5 0.5 0  15.75 0.5 0  16 0.5 0  16.25 0.5 0  16.5 0.5 0  16.75 0.5 0  17 0.5 0  17.25 0.5 0  17.5 0.5 0  17.75 0.5 0  18 0.5 0  18.25 0.5 0  18.5 0.5 0  18.75 0.5 0  19 0.5 0  19.25 0.5 0  19.5 0.5 0  19.75 0.5 0  20 0.5 0  20.25 0.5 0  20.5 0.5 0  20.75 0.5 0  21 0.5 0  21.25 0.5 0  21.5 0.5 0  21.75 0.5 0  22 0.5 0  22.25 0.5 0  22.5 0.5 0  22.75 0.5 0  23 0.5 0  23.25 0.5 0  23.5 0.5 0  23.75 0.5 0  24 0.5 0  24.25 0.5 0  24.5 0.5 0  24.75 0.5 0  25 0.5 0  0 0.75 0  0.25 0.75 0  0.5 0.75 0  0.75 0.75 0  1 0.75 0  1.25 0.75 0  1.5 0.75 0  1.75 0.75 0  2 0.75 0  2.25 0.75 0  2.5 0.75 0  2.75 0.75 0  3 0.75 0  3.25 0.75 0  3.5 0.75 0  3.75 0.75 0  4 0.75 0  4.25 0.75 0  4.5 0.75 0  4.75 0.75 0  5 0.75 0  5.25 0.75 0  5.5 0.75 0  5.75 0.75 0  6 0.75 0  6.25 0.75 0  6.5 0.75 0  6.75 0.75 0  7 0.75 0  7.25 0.75 0  7.5 0.75 0  7.75 0.75 0  8 0.75 0  8.25 0.75 0  8.5 0.75 0  8.75 0.75 0  9 0.75 0  9.25 0.75 0  9.5 0.75 0  9.75 0.75 0  10 0.75 0  10.25 0.75 0  10.5 0.75 0  10.75 0.75 0  11 0.75 0  11.25 0.75 0  11.5 0.75 0  11.75 0.75 0  12 0.75 0  12.25 0.75 0  12.5 0.75 0  12.75 0.75 0  13 0.75 0  13.25 0.75 0  13.5 0.75 0  13.75 0.75 0  14 0.75 0  14.25 0.75 0  14.5 0.75 0  14.75 0.75 0  15 0.75 0  15.25 0.75 0  15.5 0.75 0  15.75 0.75 0  16 0.75 0  16.25 0.75 0  16.5 0.75 0  16.75 0.75 0  17 0.75 0  17.25 0.75 0  17.5 0.75 0  17.75 0.75 0  18 0.75 0  18.25 0.75 0  18.5 0.75 0  18.75 0.75 0  19 0.75 0  19.25 0.75 0  19.5 0.75 0  19.75 0.75 0  20 0.75 0  20.25 0.75 0  20.5 0.75 0  20.75 0.75 0  21 0.75 0  21.25 0.75 0  21.5 0.75 0  21.75 0.75 0  22 0.75 0  22.25 0.75 0  22.5 0.75 0  22.75 0.75 0  23 0.75 0  23.25 0.75 0  23.5 0.75 0  23.75 0.75 0  24 0.75 0  24.25 0.75 0  24.5 0.75 0  24.75 0.75 0  25 0.75 0  0 1 0  0.25 1 0  0.5 1 0  0.75 1 0  1 1 0  1.25 1 0  1.5 1 0  1.75 1 0  2 1 0  2.25 1 0  2.5 1 0  2.75 1 0  3 1 0  3.25 1 0  3.5 1 0  3.75 1 0  4 1 0  4.25 1 0  4.5 1 0  4.75 1 0  5 1 0  5.25 1 0  5.5 1 0  5.75 1 0  6 1 0  6.25 1 0  6.5 1 0  6.75 1 0  7 1 0  7.25 1 0  7.5 1 0  7.75 1 0  8 1 0  8.25 1 0  8.5 1 0  8.75 1 0  9 1 0  9.25 1 0  9.5 1 0  9.75 1 0  10 1 0  10.25 1 0  10.5 1 0  10.75 1 0  11 1 0  11.25 1 0  11.5 1 0  11.75 1 0  12 1 0  12.25 1 0  12.5 1 0  12.75 1 0  13 1 0  13.25 1 0  13.5 1 0  13.75 1 0  14 1 0  14.25 1 0  14.5 1 0  14.75 1 0  15 1 0  15.25 1 0  15.5 1 0  15.75 1 0  16 1 0  16.25 1 0  16.5 1 0  16.75 1 0  17 1 0  17.25 1 0  17.5 1 0  17.75 1 0  18 1 0  18.25 1 0  18.5 1 0  18.75 1 0  19 1 0  19.25 1 0  19.5 1 0  19.75 1 0  20 1 0  20.25 1 0  20.5 1 0  20.75 1 0  21 1 0  21.25 1 0  21.5 1 0  21.75 1 0  22 1 0  22.25 1 0  22.5 1 0  22.75 1 0  23 1 0  23.25 1 0  23.5 1 0  23.75 1 0  24 1 0  24.25 1 0  24.5 1 0  24.75 1 0  25 1 0  0 1.25 0  0.25 1.25 0  0.5 1.25 0  0.75 1.25 0  1 1.25 0  1.25 1.25 0  1.5 1.25 0  1.75 1.25 0  2 1.25 0  2.25 1.25 0  2.5 1.25 0  2.75 1.25 0  3 1.25 0  3.25 1.25 0  3.5 1.25 0  3.75 1.25 0  4 1.25 0  4.25 1.25 0  4.5 1.25 0  4.75 1.25 0  5 1.25 0  5.25 1.25 0  5.5 1.25 0  5.75 1.25 0  6 1.25 0  6.25 1.25 0  6.5 1.25 0  6.75 1.25 0  7 1.25 0  7.25 1.25 0  7.5 1.25 0  7.75 1.25 0  8 1.25 0  8.25 1.25 0  8.5 1.25 0  8.75 1.25 0  9 1.25 0  9.25 1.25 0  9.5 1.25 0  9.75 1.25 0  10 1.25 0  10.25 1.25 0  10.5 1.25 0  10.75 1.25 0  11 1.25 0  11.25 1.25 0  11.5 1.25 0  11.75 1.25 0  12 1.25 0  12.25 1.25 0  12.5 1.25 0  12.75 1.25 0  13 1.25 0  13.25 1.25 0  13.5 1.25 0  13.75 1.25 0  14 1.25 0  14.25 1.25 0  14.5 1.25 0  14.75 1.25 0  15 1.25 0  15.25 1.25 0  15.5 1.25 0  15.75 1.25 0  16 1.25 0  16.25 1.25 0  16.5 1.25 0  16.75 1.25 0  17 1.25 0  17.25 1.25 0  17.5 1.25 0  17.75 1.25 0  18 1.25 0  18.25 1.25 0  18.5 1.25 0  18.75 1.25 0  19 1.25 0  19.25 1.25 0  19.5 1.25 0  19.75 1.25 0  20 1.25 0  20.25 1.25 0  20.5 1.25 0  20.75 1.25 0  21 1.25 0  21.25 1.25 0  21.5 1.25 0  21.75 1.25 0  22 1.25 0  22.25 1.25 0  22.5 1.25 0  22.75 1.25 0  23 1.25 0  23.25 1.25 0  23.5 1.25 0  23.75 1.25 0  24 1.25 0  24.25 1.25 0  24.5 1.25 0  24.75 1.25 0  25 1.25 0  0 1.5 0  0.25 1.5 0  0.5 1.5 0  0.75 1.5 0  1 1.5 0  1.25 1.5 0  1.5 1.5 0  1.75 1.5 0  2 1.5 0  2.25 1.5 0  2.5 1.5 0  2.75 1.5 0  3 1.5 0  3.25 1.5 0  3.5 1.5 0  3.75 1.5 0  4 1.5 0  4.25 1.5 0  4.5 1.5 0  4.75 1.5 0  5 1.5 0  5.25 1.5 0  5.5 1.5 0  5.75 1.5 0  6 1.5 0  6.25 1.5 0  6.5 1.5 0  6.75 1.5 0  7 1.5 0  7.25 1.5 0  7.5 1.5 0  7.75 1.5 0  8 1.5 0  8.25 1.5 0  8.5 1.5 0  8.75 1.5 0  9 1.5 0  9.25 1.5 0  9.5 1.5 0  9.75 1.5 0  10 1.5 0  10.25 1.5 0  10.5 1.5 0  10.75 1.5 0  11 1.5 0  11.25 1.5 0  11.5 1.5 0  11.75 1.5 0  12 1.5 0  12.25 1.5 0  12.5 1.5 0  12.75 1.5 0  13 1.5 0  13.25 1.5 0  13.5 1.5 0  13.75 1.5 0  14 1.5 0  14.25 1.5 0  14.5 1.5 0  14.75 1.5 0  15 1.5 0  15.25 1.5 0  15.5 1.5 0  15.75 1.5 0  16 1.5 0  16.25 1.5 0  16.5 1.5 0  16.75 1.5 0  17 1.5 0  17.25 1.5 0  17.5 1.5 0  17.75 1.5 0  18 1.5 0  18.25 1.5 0  18.5 1.5 0  18.75 1.5 0  19 1.5 0  19.25 1.5 0  19.5 1.5 0  19.75 1.5 0  20 1.5 0  20.25 1.5 0  20.5 1.5 0  20.75 1.5 0  21 1.5 0  21.25 1.5 0  21.5 1.5 0  21.75 1.5 0  22 1.5 0  22.25 1.5 0  22.5 1.5 0  22.75 1.5 0  23 1.5 0  23.25 1.5 0  23.5 1.5 0  23.75 1.5 0  24 1.5 0  24.25 1.5 0  24.5 1.5 0  24.75 1.5 0  25 1.5 0  0 1.75 0  0.25 1.75 0  0.5 1.75 0  0.75 1.75 0  1 1.75 0  1.25 1.75 0  1.5 1.75 0  1.75 1.75 0  2 1.75 0  2.25 1.75 0  2.5 1.75 0  2.75 1.75 0  3 1.75 0  3.25 1.75 0  3.5 1.75 0  3.75 1.75 0  4 1.75 0  4.25 1.75 0  4.5 1.75 0  4.75 1.75 0  5 1.75 0  5.25 1.75 0  5.5 1.75 0  5.75 1.75 0  6 1.75 0  6.25 1.75 0  6.5 1.75 0  6.75 1.75 0  7 1.75 0  7.25 1.75 0  7.5 1.75 0  7.75 1.75 0  8 1.75 0  8.25 1.75 0  8.5 1.75 0  8.75 1.75 0  9 1.75 0  9.25 1.75 0  9.5 1.75 0  9.75 1.75 0  10 1.75 0  10.25 1.75 0  10.5 1.75 0  10.75 1.75 0  11 1.75 0  11.25 1.75 0  11.5 1.75 0  11.75 1.75 0  12 1.75 0  12.25 1.75 0  12.5 1.75 0  12.75 1.75 0  13 1.75 0  13.25 1.75 0  13.5 1.75 0  13.75 1.75 0  14 1.75 0  14.25 1.75 0  14.5 1.75 0  14.75 1.75 0  15 1.75 0  15.25 1.75 0  15.5 1.75 0  15.75 1.75 0  16 1.75 0  16.25 1.75 0  16.5 1.75 0  16.75 1.75 0  17 1.75 0  17.25 1.75 0  17.5 1.75 0  17.75 1.75 0  18 1.75 0  18.25 1.75 0  18.5 1.75 0  18.75 1.75 0  19 1.75 0  19.25 1.75 0  19.5 1.75 0  19.75 1.75 0  20 1.75 0  20.25 1.75 0  20.5 1.75 0  20.75 1.75 0  21 1.75 0  21.25 1.75 0  21.5 1.75 0  21.75 1.75 0  22 1.75 0  22.25 1.75 0  22.5 1.75 0  22.75 1.75 0  23 1.75 0  23.25 1.75 0  23.5 1.75 0  23.75 1.75 0  24 1.75 0  24.25 1.75 0  24.5 1.75 0  24.75 1.75 0  25 1.75 0  0 2 0  0.25 2 0  0.5 2 0  0.75 2 0  1 2 0  1.25 2 0  1.5 2 0  1.75 2 0  2 2 0  2.25 2 0  2.5 2 0  2.75 2 0  3 2 0  3.25 2 0  3.5 2 0  3.75 2 0  4 2 0  4.25 2 0  4.5 2 0  4.75 2 0  5 2 0  5.25 2 0  5.5 2 0  5.75 2 0  6 2 0  6.25 2 0  6.5 2 0  6.75 2 0  7 2 0  7.25 2 0  7.5 2 0  7.75 2 0  8 2 0  8.25 2 0  8.5 2 0  8.75 2 0  9 2 0  9.25 2 0  9.5 2 0  9.75 2 0  10 2 0  10.25 2 0  10.5 2 0  10.75 2 0  11 2 0  11.25 2 0 
[...]
<PointData  Scalars="f_23"> 
<DataArray  type="Float64"  Name="f_23"  format="ascii">4.5203276638884937e-01  4.4957236172410558e-01  4.4405470615537840e-01  4.3521542990854917e-01  4.2298292484066335e-01  4.0734869455917116e-01  3.8834356505940620e-01  3.6604021840148393e-01  3.4056323570070268e-01  3.1210095064578752e-01  2.8091631291915325e-01  2.4735461782557197e-01  2.1184624427939322e-01  1.7490296935472649e-01  1.3710713146292400e-01  9.9093861499549185e-02  6.1527637948986379e-02  2.5075323438564619e-02  -9.6216159875467042e-03  -4.1972963254683131e-02  -7.1461390959767460e-02  -9.7658444906861999e-02  -1.2023441664486074e-01  -1.3896255977445979e-01  -1.5371874896925675e-01  -1.6447797421644700e-01  -1.7130901656889194e-01  -1.7436834765140147e-01  -1.7389384987224663e-01  -1.7019848658829589e-01  -1.6366366079915554e-01  -1.5473175616474946e-01  -1.4389728915301897e-01  -1.3169621414288069e-01  -1.1869317905379106e-01  -1.0546686520311183e-01  -9.2593884257612821e-02  -8.0631972046272760e-02  -7.0103358767795637e-02  -6.1479187313953486e-02  -5.5165714404225887e-02  -5.1492812855990507e-02  -5.0705062272249260e-02  -5.2955528846206579e-02  -5.8302229125284273e-02  -6.6707251624091385e-02  -7.8038547112599485e-02  -9.2074445046610998e-02  -1.0851095659647216e-01  -1.2697184321758637e-01  -1.4702124998499061e-01  -1.6817844564087589e-01  -1.8993392840512216e-01  -2.1176591777502432e-01  -2.3315612493970769e-01  -2.5360372210344584e-01  -2.7263662141121503e-01  -2.8981949658463096e-01  -3.0475837632834674e-01  -3.1710203963721101e-01  -3.2654078919937168e-01  -3.3280343077022789e-01  -3.3565342868434128e-01  -3.3488524543574355e-01  -3.3032182177894753e-01  -3.2181402849428137e-01  -3.0924272963227184e-01  -2.9252383705391172e-01  -2.7161639747191119e-01  -2.4653332807225126e-01  -2.1735391368323034e-01  -1.8423663849054644e-01  -1.4743043395839039e-01  -1.0728211025356350e-01  -6.4237749001981703e-02  -1.8836290713711564e-02  2.8305518180291402e-02  7.6516353513243707e-02  1.2509983541541184e-01  1.7336727191126622e-01  2.2066990681824364e-01  2.6642703706068321e-01  3.1014714531845977e-01  3.5144044653078954e-01  3.9002263619289168e-01  4.2571083179591229e-01  4.5841350189328317e-01  4.8811651264477207e-01  5.1486734851691374e-01  5.3875921415506667e-01  5.5991624553281261e-01  5.7848057183808665e-01  5.9460155288613381e-01  6.0842720441393794e-01  6.2009761607241409e-01  6.2974004160917862e-01  6.3746525142948174e-01  6.4336457577613193e-01  6.4750646122598343e-01  6.4992873222882175e-01  6.5061066245258825e-01  4.4863913963705432e-01  4.4670907587136499e-01  4.4132201702621870e-01  4.3252047387692483e-01  4.2030266126746957e-01  4.0467868175382116e-01  3.8568609599806825e-01  3.6340130779800855e-01  3.3795170810231157e-01  3.0952799883913745e-01  2.7839508610869212e-01  2.4489971436988980e-01  2.0947309018511912e-01  1.7262711340324763e-01  1.3494351519945447e-01  9.7056133626513164e-02  5.9627578936671699e-02  2.3322429692796770e-02  -1.1220363420247672e-02  -4.3413146439114390e-02  -7.2741042183048291e-02  -9.8777810380387090e-02  -1.2119563993069940e-01  -1.3976932678391138e-01  -1.5437593019061713e-01  -1.6499129111188621e-01  -1.7168474977061271e-01  -1.7461309601707076e-01  -1.7401434241101013e-01  -1.7020144407967039e-01  -1.6355570059032240e-01  -1.5451933189147307e-01  -1.4358665660110426e-01  -1.3129341477714496e-01  -1.1820403364768514e-01  -1.0489697143910817e-01  -9.1948614183936642e-02  -7.9916467875570024e-02  -6.9322528484549145e-02  -6.0637704424909684e-02  -5.4268028200536569e-02  -5.0543176018636012e-02  -4.9707581046589733e-02  -5.1914237294566005e-02  -5.7221183641704934e-02  -6.5590635963799229e-02  -7.6890772980362926e-02  -9.0900230203607907e-02  -1.0731536263515422e-01  -1.2576025918006664e-01  -1.4579931556034731e-01  -1.6695191751209110e-01  -1.8870850340919998e-01  -2.1054703461013760e-01  -2.3194877032598180e-01  -2.5241226669899214e-01  -2.7146470578053056e-01  -2.8866997957014751e-01  -3.0363334928640678e-01  -3.1600290204598008e-01  -3.2546837536627610e-01  -3.3175817413827635e-01  -3.3463554917028310e-01  -3.3389494547042586e-01  -3.2935947730132248e-01  -3.2088036133799236e-01  -3.0833894725693389e-01  -2.9165172471906542e-01  -2.7077834764176278e-01  -2.4573229345244735e-01  -2.1659327531716477e-01  -1.8351998977635656e-01  -1.4676129501991642e-01  -1.0666360264390061e-01  -6.3672274144657481e-02  -1.8325261758957448e-02  2.8761846290861922e-02  7.6918927764602213e-02  1.2545071917592776e-01  1.7366945292056410e-01  2.2092704019366666e-01  2.6664317113718783e-01  3.1032647177397349e-01  3.5158710139133303e-01  3.9014056122099972e-01  4.2580369186199474e-01  4.5848464597596761e-01  4.8816896405643057e-01  5.1490381198571467e-01  5.3878209125796306e-01  5.5992765392287391e-01  5.7848236689301658e-01  5.9459535284989651e-01  6.0841442272637003e-01  6.2007950998094530e-01  6.2971780257957721e-01  6.3744022154421953e-01  6.4333890774644631e-01  6.4748555367851568e-01  6.4993148595073114e-01  6.5071663333003471e-01  4.4030665424717702e-01  4.3850653339218615e-01  4.3320559442733936e-01  4.2444803460899677e-01  4.1225519699192342e-01  3.9665306120463462e-01  3.7769005120033805e-01  3.5545128943338850e-01  3.3007199200219106e-01  3.0175007524341596e-01  2.7075686501195756e-01  2.3744434193477099e-01  2.0224732305114088e-01  1.6567930763167793e-01  1.2832137375925606e-01  9.0804417325331510e-02  5.3786010724648579e-02  1.7924005128985829e-02  -1.6150503169997964e-02  -4.7858205704145083e-02  -7.6692443178841746e-02  -1.0223454276852811e-01  -1.2416323605419417e-01  -1.4225863180092069e-01  -1.5640182752213636e-01  -1.6657151331186926e-01  -1.7283886329248074e-01  -1.7536170474933682e-01  -1.7437851615605174e-01  -1.7020234833655271e-01  -1.6321438462438465e-01  -1.5385662300844755e-01  -1.4262310867588718e-01  -1.3004926672565345e-01  -1.1669914659059673e-01  -1.0315072938900723e-01  -8.9979789591675186e-02  -7.7743067730698362e-02  -6.6961646688417392e-02  -5.8105410385325296e-02  -5.1579319551289929e-02  -4.7712015585034254e-02  -4.6747026062313735e-02  -4.8836654402880993e-02  -5.4038528621083222e-02  -6.2314764634179065e-02  -7.3533741392627153e-02  -8.7474539612681992e-02  -1.0383410888819559e-01  -1.2223715706402187e-01  -1.4224858520387168e-01  -1.6338803972876886e-01  -1.8514587054410278e-01  -2.0699953936762194e-01  -2.2842938419497216e-01  -2.4893266038979836e-01  -2.6803495686265205e-01  -2.8529839929283896e-01  -3.0032644445119894e-01  -3.1276547196947335e-01  -3.2230373088366532e-01  -3.2866845650891996e-01  -3.3162212165993543e-01  -3.3095882835620294e-01  -3.2650179667042167e-01  -3.1810278197535818e-01  -3.0564405926619137e-01  -2.8904335220171867e-01  -2.6826174660580582e-01  -2.4331420684422511e-01  -2.1428181793947276e-01  -1.8132434704819425e-01  -1.4469123817353313e-01  -1.0472884806871652e-01  -6.1881742422092732e-02  -1.6686316201339018e-02  3.0244088375353417e-02  7.8242121057359490e-02  1.2661558495016012e-01  1.7467980930891813e-01  2.2178957666065796e-01  2.6736701285244352e-01  3.1092260420045398e-01  3.5206773377586098e-01  3.9051850107097896e-01  4.2609178570748563e-01  4.5869532074592551e-01  4.8831388340160936e-01  5.1499364610571041e-01  5.3882638848443321e-01  5.5993479726621054e-01  5.7845959806562841e-01  5.9454884905482541e-01  6.0834941762504191e-01  6.2000046146805599e-01  6.2962863223186938e-01  6.3734469875400113e-01  6.4324135251131387e-01  6.4739217003232996e-01  6.4985221694439321e-01  6.5066147963998577e-01  4.2673699048207769e-01  4.2497432245725658e-01  4.1971753419598462e-01  4.1099365068746446e-01  3.9882912011627780e-01  3.8326064658253217e-01  3.6434842976628717e-01  3.4218954751742409e-01  3.1693109693002880e-01  2.8878240882897022e-01  2.5802514212976735e-01  2.2501977179251709e-01  1.9020699386110665e-01  1.5410291053678868e-01  1.1728750949259020e-01  8.0386825629552655e-02  4.4050104927500958e-02  8.9240686886300595e-03  -2.4373192480857703e-02  -5.5276195435086592e-02  -8.3291893071003514e-02  -1.0801413615080255e-01  -1.2913246403552026e-01  -1.4643573563203222e-01  -1.5981167094399976e-01  -1.6924360573238179e-01  -1.7480568355601608e-01  -1.7665740027694740e-01  -1.7503798536565265e-01  -1.7026066259773656e-01  -1.6270647247189998e-01  -1.5281712395323774e-01  -1.4108630496699298e-01  -1.2804901596171961e-01  -1.1426876240728177e-01  -1.0032278704904875e-01  -8.6785863192185259e-02  -7.4213431034594587e-02  -6.3124986288749393e-02  -5.3988605651392109e-02  -4.7207338242512435e-02  -4.3107958764606338e-02  -4.1932334055956498e-02  -4.3831460812953936e-02  -4.8862125659287547e-02  -5.6986123704012438e-02  -6.8072020711974435e-02  -8.1899507702653140e-02  -9.8166419974309804e-02  -1.1649843158167417e-01  -1.3646127385205131e-01  -1.5757507941181811e-01  -1.7933017033216903e-01  -2.0120335912620596e-01  -2.2267368340550744e-01  -2.4323649746935902e-01  -2.6241501014639151e-01  -2.7976866239357956e-01  -2.9489812520042358e-01  -3.0744710018016103e-01  -3.1710145953180308e-01  -3.2358652578051156e-01  -3.2666344604396380e-01  -3.2612566251696434e-01  -3.2179643432069965e-01  -3.1352824140866042e-01  -3.0120470814451950e-01  -2.8474542220932791e-01  -2.6411368654581446e-01  -2.3932682287799439e-01  -2.1046815515370876e-01  -1.7769928080107097e-01  -1.4127076908085562e-01  -1.0152913079862981e-01  -5.8917921524355980e-02  -1.3971283705520098e-02  3.2700869861176034e-02  8.0435579871710183e-02  1.2854565898329784e-01  1.7635164276850951e-01  2.2321328071250779e-01  2.6855704118801610e-01  3.1189684553303565e-01  3.5284644995456349e-01  3.9112323981966807e-01  4.2654437594319011e-01  4.5901702510646197e-01  4.8852474659801581e-01  5.1511204637804275e-01  5.3886877680160417e-01  5.5991559591015561e-01  5.7839122576502355e-01  5.9444184191625526e-01  6.0821262189867520e-01  6.1984128448017040e-01  6.2945335067175068e-01  6.3715883459064471e-01  6.4305011244146970e-01  6.4720080422123671e-01  6.4966555758496314e-01  6.5048026436247064e-01  4.0781096581981746e-01  4.0606360444772449e-01  4.0083267854623816e-01  3.9213779091224382e-01  3.8000882997012952e-01  3.6449221318919828e-01  3.4566107196596629e-01  3.2362705757557231e-01  2.9855246414727610e-01  2.7066148602505219e-01  2.4024926040568811e-01  2.0768723252551410e-01  1.7342348034836785e-01  1.3797701590007314e-01  1.0192573285551264e-01  6.5888506330385885e-02  3.0502811132059750e-02  -3.6000862139712259e-03  -3.5819960760550891e-02  -6.5610175190360914e-02  -9.2496123387597051e-02  -1.1608853002962417e-01  -1.3609142014401349e-01  -1.5230531577056133e-01  -1.6462670854766098e-01  -1.7304503980664512e-01  -1.7763831536991817e-01  -1.7856816843821610e-01  -1.7607476452049614e-01  -1.7047152135683163e-01  -1.6213928119432577e-01  -1.5151938286124705e-01  -1.3910506548708282e-01  -1.2543078936301796e-01  -1.1105934456418513e-01  -9.6566970125033486e-02  -8.2527047111877222e-02  -6.9493182821722094e-02  -5.7982618084031511e-02  -4.8460849296393958e-02  -4.1328185505176716e-02  -3.6908714154083186e-02  -3.5441896254171164e-02  -3.7076814422386757e-02  -4.1868992486981484e-02  -4.9779696674356617e-02  -6.0677687216564413e-02  -7.4343465150405019e-02  -9.0476095661486955e-02  -1.0870264138471657e-01  -1.2859008737509592e-01  -1.4965939875499124e-01  -1.7140106955596687e-01  -1.9329126507941299e-01  -2.1480750000944060e-01  -2.3544278130840851e-01  -2.5471729508609126e-01  -2.7218700797446027e-01  -2.8744893305171948e-01  -3.0014321067606736e-01  -3.0995251251164935e-01  -3.1659954755048114e-01  -3.1984361094254565e-01  -3.1947716995882758e-01  -3.1532343913822503e-01  -3.0723577392411600e-01  -2.9509951876106200e-01  -2.7883668270428813e-01  -2.5841347766456946e-01  -2.3385033800448202e-01  -2.0523355690860198e-01  -1.7272716593986570e-01  -1.3658323036511741e-01  -9.7148452658942161e-02  -5.4865004304340721e-02  -1.0263948423906020e-02  3.6049502550345586e-02  8.3418430855683012e-02  1.3116257273938431e-01  1.7860969422024270e-01  2.2512647804690583e-01  2.7014548664159299e-01  3.1318548953345648e-01  3.5386361512154962e-01  3.9189909580047017e-01  4.2710951962536275e-01  4.5940127550755999e-01  4.8875621313588297e-01  5.1521648408747345e-01  5.3886920863123000e-01  5.5983216227739663e-01  5.7824121364231240e-01  5.9423984682580211e-01  6.0797080285822813e-01  6.1956968076451946e-01  6.2916023612397765e-01  6.3685108244766908e-01  6.4273351362433984e-01  6.4688019054124357e-01  6.4934440752148304e-01  6.5015945658764995e-01  3.8346942248857790e-01  3.8173417399066611e-01  3.7652711113945753e-01  3.6786771632498644e-01  3.5579179117827958e-01  3.4035684692629192e-01  3.2165073820752810e-01  2.9980206021192451e-01  2.7499097783169435e-01  2.4745916149479749e-01  2.1751742856546699e-01  1.8554968282467971e-01  1.5201192397999155e-01  1.1742552106860993e-01  8.2364593422423943e-02  4.7438130180827133e-02  1.3268252092561508e-02  -1.9533397996383244e-02  -5.0388901933172921e-02  -7.8774867947954089e-02  -1.0423921521478739e-01  -1.2641310571727365e-01  -1.4501797016470711e-01  -1.5986823107530410e-01  -1.7087073880746012e-01  -1.7802206238131413e-01  -1.8140464343157223e-01  -1.8118250385721082e-01  -1.7759679276788873e-01  -1.7096106263495608e-01  -1.6165585883232261e-01  -1.5012204693749095e-01  -1.3685231413329141e-01  -1.2238045774180309e-01  -1.0726837577994691e-01  -9.2091035383955938e-02  -7.7420035319430147e-02  -6.3806623710759708e-02  -5.1765130876953350e-02  -4.1757716941642056e-02  -3.4181142623575307e-02  -2.9356008418080587e-02  -2.7518643823151914e-02  -2.8815627030826230e-02  -3.3300813278473181e-02  -4.0934749285957410e-02  -5.1586422035875580e-02  -6.5037380879461718e-02  -8.0988324729999617e-02  -9.9068214054904083e-02  -1.1884582908731831e-01  -1.3984346343888085e-01  -1.6155216119788729e-01  -1.8344764269660244e-01  -2.0500588997928326e-01  -2.2571733099039071e-01  -2.4509869198353773e-01  -2.6270186247221522e-01  -2.7811948618091020e-01  -2.9098738869714180e-01  -3.0098431387646035e-01  -3.0782971928862535e-01  -3.1128055222617068e-01  -3.1112798956621235e-01  -3.0719508820065389e-01  -2.9933617267918783e-01  -2.8743859364258922e-01  -2.7142722704983091e-01  -2.5127174671795866e-01  -2.2699628998437246e-01  -1.9869066165928084e-01  -1.6652172653912692e-01  -1.3074320501134140e-01  -9.1701824177621211e-02  -4.9837816479170696e-02  -5.6781989697075102e-03  4.0177871109928869e-02  8.7081186523339002e-02  1.3436027259575800e-01  1.8135204174880795e-01  2.2743192335957341e-01  2.7204014716836072e-01  3.1470156078930661e-01  3.5503749321281969e-01  3.9276943958672805e-01  4.2771544776146297e-01  4.5978083689392596e-01  4.8894520545179426e-01  5.1524763776187488e-01  5.3877171084150455e-01  5.5963146971478162e-01  5.7795909207028973e-01  5.9389457593306072e-01  6.0757749199405531e-01  6.1914065041258726e-01  6.2870542706386279e-01  6.3637845454196162e-01  6.4224938375987661e-01  6.4638943545684213e-01  6.4885045844037093e-01  6.4966418201971821e-01  3.5370425335172839e-01  3.5198487632429526e-01  3.4681081898779015e-01  3.3820553133475995e-01  3.2621343855148394e-01  3.1090515480695885e-01  2.9238517481705012e-01  2.7080102289855124e-01  2.4635266582606821e-01  2.1930089098430383e-01  1.8997329488794076e-01  1.5876658396119125e-01  1.2614412817278739e-01  9.2628159259250692e-02  5.8786639474291885e-02  2.5215550106086941e-02  -7.4819805191295441e-03  -3.8717824512539155e-02  -6.7940247030224263e-02  -9.4652725722848066e-02  -1.1842889330166166e-01  -1.3892298683123172e-01  -1.5587588470539981e-01  -1.6911737230685778e-01  -1.7856560492380805e-01  -1.8422480319656367e-01  -1.8618205381692643e-01  -1.8460376834810449e-01  -1.7973196545961756e-01  -1.7188017494391150e-01  -1.6142848972946405e-01  -1.4881716618137950e-01  -1.3453821620968529e-01  -1.1912463772359458e-01  -1.0313725100799254e-01  -8.7149479519219808e-02  -7.1730753398177444e-02  -5.7429448016197003e-02  -4.4756349519493359e-02  -3.4169555602869175e-02  -2.6061505091881560e-02  -2.0748547552024106e-02  -1.8463188352992311e-02  -1.9348939036976005e-02  -2.3457603643266024e-02  -3.0748839948517119e-02  -4.1091919015788805e-02  -5.4269713886487325e-02  -6.9985019441367799e-02  -8.7869291760194104e-02  -1.0749377297195765e-01  -1.2838274611051706e-01  -1.5002838636099503e-01  -1.7190640587448280e-01  -1.9349150005952553e-01  -2.1427154998508363e-01  -2.3375964291116630e-01  -2.5150322757380200e-01  -2.6709007640848592e-01  -2.8015111891838224e-01  -2.9036057433808693e-01  -2.9743409805784482e-01  -3.0112583792400016e-01  -3.0122536811251360e-01  -2.9755543889992941e-01  -2.8997136447335464e-01  -2.7836267901144957e-01  -2.6265742775981388e-01  -2.4282912362160772e-01  -2.1890599203460315e-01  -1.9098166281932913e-01  -1.5922598943245106e-01  -1.2389426121654250e-01  -8.5332832560588559e-02  -4.3979245199817697e-02  -3.5535830336667397e-04  4.4947160041874545e-02  9.1288487789313144e-02  1.3800773824438020e-01  1.8445275741249598e-01  2.3000936087755788e-01  2.7412682120773380e-01  3.1633709337555727e-01  3.5626634974915022e-01  3.9363860587179506e-01  4.2827227791598321e-01  4.6007123455326143e-01  4.8901222483324536e-01  5.1513052331809561e-01  5.3850534356763124e-01  5.5924615753083495e-01  5.7748062893048047e-01  5.9334449473587869e-01  6.0697344464076675e-01  6.1849685963041323e-01  6.2803316497798922e-01  6.3568650984844177e-01  6.4154448275254916e-01  6.4567658911308701e-01  6.4813324077096512e-01  6.4894504278170884e-01  3.1857895200900682e-01  3.1688294428047387e-01  3.1175980550334459e-01  3.0323927729699546e-01  2.9137648109902942e-01  2.7625687523301862e-01  2.5800311331119619e-01  2.3678295733234531e-01  2.1281716786891200e-01  1.8638615914071724e-01  1.5783417224394056e-01  1.2756982409074513e-01  9.6062170496284252e-02  6.3831885208686170e-02  3.1437758146758567e-02  -5.4064018156573077e-04  -3.1522723934304150e-02  -6.0947338664479149e-02  -8.8292094541525645e-02  -1.1309005375241822e-01  -1.3494274608403772e-01  -1.5352911327666593e-01  -1.6861058678900198e-01  -1.8003296312745853e-01  -1.8772598273230917e-01  -1.9170152739396817e-01  -1.9205116220528134e-01  -1.8894342885234799e-01  -1.8262092932448698e-01  -1.7339690316764036e-01  -1.6165076497780667e-01  -1.4782197906533784e-01  -1.3240172508226508e-01  -1.1592203999991586e-01  -9.8942463770445882e-02  -8.2034597667942910e-02  -6.5765323080859944e-02  -5.0679649953763520e-02  -3.7284222016272697e-02  -2.6032395711804095e-02  -1.7311568956355793e-02  -1.1433132285536501e-02  -8.6251257769279412e-03  -9.0274749089238621e-03  -1.2689582679646828e-02  -1.9570073412798972e-02  -2.9538582676489563e-02  -4.2379613091531147e-02  -5.7798566923474244e-02  -7.5430072929178527e-02  -9.4848620833982253e-02  -1.1558130852198013e-01  -1.3712223396766682e-01  -1.5894778967264903e-01  -1.8053191292372817e-01  -2.0136026910435606e-01  -2.2094242675077824e-01  -2.3882131391628161e-01  -2.5457958390007485e-01  -2.6784290245203635e-01  -2.7828053352294818e-01  -2.8560389469248465e-01  -2.8956394616953607e-01  -2.8994835996921575e-01  -2.8657939523404213e-01  -2.7931329483062417e-01  -2.6804182888200562e-01  -2.5269634863198237e-01  -2.3325438039002214e-01  -2.0974838809492460e-01  -1.8227588150024152e-01  -1.5100958768128664e-01  -1.1620601181477683e-01  -7.8210493336572914e-02  -3.7456928459120291e-02  5.5392367254027582e-03  5.0195327699420193e-02  9.5882574312090810e-02  1.4195239404635973e-01  1.8776520866407717e-01  2.3271867122723502e-01  2.7627226312078951e-01  3.1796586660130943e-01  3.5743094859807639e-01  3.9439414076193990e-01  4.2867400974501674e-01  4.6017250280711941e-01  4.8886286413256880e-01  5.1477578623587861e-01  5.3798529045026855e-01  5.5859543968617986e-01  5.7672857744560013e-01  5.9251542806515733e-01  6.0608711804342841e-01  6.1756899338201054e-01  6.2707600234535132e-01  6.3470936829769486e-01  6.4055427349684479e-01  6.4467829530024412e-01  6.4713037133054652e-01  6.4794012045418070e-01  2.7825811719661053e-01  2.7659550070754996e-01  2.715