<?xml version="1.0"?>
<VTKFile type="UnstructuredGrid"  version="0.1"  >
<UnstructuredGrid>
<Piece  NumberOfPoints="10201" NumberOfCells="20000">
<Points>
<DataArray  type="Float64"  NumberOfComponents="3"  format="ascii">0 0 0  0.25 0 0  0.5 0 0  0.75 0 0  1 0 0  1.25 0 0  1.5 0 0  1.75 0 0  2 0 0  2.25 0 0  2.5 0 0  2.75 0 0  3 0 0  3.25 0 0  3.5 0 0  3.75 0 0  4 0 0  4.25 0 0  4.5 0 0  4.75 0 0  5 0 0  5.25 0 0  5.5 0 0  5.75 0 0  6 0 0  6.25 0 0  6.5 0 0  6.75 0 0  7 0 0  7.25 0 0  7.5 0 0  7.75 0 0  8 0 0  8.25 0 0  8.5 0 0  8.75 0 0  9 0 0  9.25 0 0  9.5 0 0  9.75 0 0  10 0 0  10.25 0 0  10.5 0 0  10.75 0 0  11 0 0  11.25 0 0  11.5 0 0  11.75 0 0  12 0 0  12.25 0 0  12.5 0 0  12.75 0 0  13 0 0  13.25 0 0  13.5 0 0  13.75 0 0  14 0 0  14.25 0 0  14.5 0 0  14.75 0 0  15 0 0  15.25 0 0  15.5 0 0  15.75 0 0  16 0 0  16.25 0 0  16.5 0 0  16.75 0 0  17 0 0  17.25 0 0  17.5 0 0  17.75 0 0  18 0 0  18.25 0 0  18.5 0 0  18.75 0 0  19 0 0  19.25 0 0  19.5 0 0  19.75 0 0  20 0 0  20.25 0 0  20.5 0 0  20.75 0 0  21 0 0  21.25 0 0  21.5 0 0  21.75 0 0  22 0 0  22.25 0 0  22.5 0 0  22.75 0 0  23 0 0  23.25 0 0  23.5 0 0  23.75 0 0  24 0 0  24.25 0 0  24.5 0 0  24.75 0 0  25 0 0  0 0.25 0  0.25 0.25 0  0.5 0.25 0  0.75 0.25 0  1 0.25 0  1.25 0.25 0  1.5 0.25 0  1.75 0.25 0  2 0.25 0  2.25 0.25 0  2.5 0.25 0  2.75 0.25 0  3 0.25 0  3.25 0.25 0  3.5 0.25 0  3.75 0.25 0  4 0.25 0  4.25 0.25 0  4.5 0.25 0  4.75 0.25 0  5 0.25 0  5.25 0.25 0  5.5 0.25 0  5.75 0.25 0  6 0.25 0  6.25 0.25 0  6.5 0.25 0  6.75 0.25 0  7 0.25 0  7.25 0.25 0  7.5 0.25 0  7.75 0.25 0  8 0.25 0  8.25 0.25 0  8.5 0.25 0  8.75 0.25 0  9 0.25 0  9.25 0.25 0  9.5 0.25 0  9.75 0.25 0  10 0.25 0  10.25 0.25 0  10.5 0.25 0  10.75 0.25 0  11 0.25 0  11.25 0.25 0  11.5 0.25 0  11.75 0.25 0  12 0.25 0  12.25 0.25 0  12.5 0.25 0  12.75 0.25 0  13 0.25 0  13.25 0.25 0  13.5 0.25 0  13.75 0.25 0  14 0.25 0  14.25 0.25 0  14.5 0.25 0  14.75 0.25 0  15 0.25 0  15.25 0.25 0  15.5 0.25 0  15.75 0.25 0  16 0.25 0  16.25 0.25 0  16.5 0.25 0  16.75 0.25 0  17 0.25 0  17.25 0.25 0  17.5 0.25 0  17.75 0.25 0  18 0.25 0  18.25 0.25 0  18.5 0.25 0  18.75 0.25 0  19 0.25 0  19.25 0.25 0  19.5 0.25 0  19.75 0.25 0  20 0.25 0  20.25 0.25 0  20.5 0.25 0  20.75 0.25 0  21 0.25 0  21.25 0.25 0  21.5 0.25 0  21.75 0.25 0  22 0.25 0  22.25 0.25 0  22.5 0.25 0  22.75 0.25 0  23 0.25 0  23.25 0.25 0  23.5 0.25 0  23.75 0.25 0  24 0.25 0  24.25 0.25 0  24.5 0.25 0  24.75 0.25 0  25 0.25 0  0 0.5 0  0.25 0.5 0  0.5 0.5 0  0.75 0.5 0  1 0.5 0  1.25 0.5 0  1.5 0.5 0  1.75 0.5 0  2 0.5 0  2.25 0.5 0  2.5 0.5 0  2.75 0.5 0  3 0.5 0  3.25 0.5 0  3.5 0.5 0  3.75 0.5 0  4 0.5 0  4.25 0.5 0  4.5 0.5 0  4.75 0.5 0  5 0.5 0  5.25 0.5 0  5.5 0.5 0  5.75 0.5 0  6 0.5 0  6.25 0.5 0  6.5 0.5 0  6.75 0.5 0  7 0.5 0  7.25 0.5 0  7.5 0.5 0  7.75 0.5 0  8 0.5 0  8.25 0.5 0  8.5 0.5 0  8.75 0.5 0  9 0.5 0  9.25 0.5 0  9.5 0.5 0  9.75 0.5 0  10 0.5 0  10.25 0.5 0  10.5 0.5 0  10.75 0.5 0  11 0.5 0  11.25 0.5 0  11.5 0.5 0  11.75 0.5 0  12 0.5 0  12.25 0.5 0  12.5 0.5 0  12.75 0.5 0  13 0.5 0  13.25 0.5 0  13.5 0.5 0  13.75 0.5 0  14 0.5 0  14.25 0.5 0  14.5 0.5 0  14.75 0.5 0  15 0.5 0  15.25 0.5 0  15.5 0.5 0  15.75 0.5 0  16 0.5 0  16.25 0.5 0  16.5 0.5 0  16.75 0.5 0  17 0.5 0  17.25 0.5 0  17.5 0.5 0  17.75 0.5 0  18 0.5 0  18.25 0.5 0  18.5 0.5 0  18.75 0.5 0  19 0.5 0  19.25 0.5 0  19.5 0.5 0  19.75 0.5 0  20 0.5 0  20.25 0.5 0  20.5 0.5 0  20.75 0.5 0  21 0.5 0  21.25 0.5 0  21.5 0.5 0  21.75 0.5 0  22 0.5 0  22.25 0.5 0  22.5 0.5 0  22.75 0.5 0  23 0.5 0  23.25 0.5 0  23.5 0.5 0  23.75 0.5 0  24 0.5 0  24.25 0.5 0  24.5 0.5 0  24.75 0.5 0  25 0.5 0  0 0.75 0  0.25 0.75 0  0.5 0.75 0  0.75 0.75 0  1 0.75 0  1.25 0.75 0  1.5 0.75 0  1.75 0.75 0  2 0.75 0  2.25 0.75 0  2.5 0.75 0  2.75 0.75 0  3 0.75 0  3.25 0.75 0  3.5 0.75 0  3.75 0.75 0  4 0.75 0  4.25 0.75 0  4.5 0.75 0  4.75 0.75 0  5 0.75 0  5.25 0.75 0  5.5 0.75 0  5.75 0.75 0  6 0.75 0  6.25 0.75 0  6.5 0.75 0  6.75 0.75 0  7 0.75 0  7.25 0.75 0  7.5 0.75 0  7.75 0.75 0  8 0.75 0  8.25 0.75 0  8.5 0.75 0  8.75 0.75 0  9 0.75 0  9.25 0.75 0  9.5 0.75 0  9.75 0.75 0  10 0.75 0  10.25 0.75 0  10.5 0.75 0  10.75 0.75 0  11 0.75 0  11.25 0.75 0  11.5 0.75 0  11.75 0.75 0  12 0.75 0  12.25 0.75 0  12.5 0.75 0  12.75 0.75 0  13 0.75 0  13.25 0.75 0  13.5 0.75 0  13.75 0.75 0  14 0.75 0  14.25 0.75 0  14.5 0.75 0  14.75 0.75 0  15 0.75 0  15.25 0.75 0  15.5 0.75 0  15.75 0.75 0  16 0.75 0  16.25 0.75 0  16.5 0.75 0  16.75 0.75 0  17 0.75 0  17.25 0.75 0  17.5 0.75 0  17.75 0.75 0  18 0.75 0  18.25 0.75 0  18.5 0.75 0  18.75 0.75 0  19 0.75 0  19.25 0.75 0  19.5 0.75 0  19.75 0.75 0  20 0.75 0  20.25 0.75 0  20.5 0.75 0  20.75 0.75 0  21 0.75 0  21.25 0.75 0  21.5 0.75 0  21.75 0.75 0  22 0.75 0  22.25 0.75 0  22.5 0.75 0  22.75 0.75 0  23 0.75 0  23.25 0.75 0  23.5 0.75 0  23.75 0.75 0  24 0.75 0  24.25 0.75 0  24.5 0.75 0  24.75 0.75 0  25 0.75 0  0 1 0  0.25 1 0  0.5 1 0  0.75 1 0  1 1 0  1.25 1 0  1.5 1 0  1.75 1 0  2 1 0  2.25 1 0  2.5 1 0  2.75 1 0  3 1 0  3.25 1 0  3.5 1 0  3.75 1 0  4 1 0  4.25 1 0  4.5 1 0  4.75 1 0  5 1 0  5.25 1 0  5.5 1 0  5.75 1 0  6 1 0  6.25 1 0  6.5 1 0  6.75 1 0  7 1 0  7.25 1 0  7.5 1 0  7.75 1 0  8 1 0  8.25 1 0  8.5 1 0  8.75 1 0  9 1 0  9.25 1 0  9.5 1 0  9.75 1 0  10 1 0  10.25 1 0  10.5 1 0  10.75 1 0  11 1 0  11.25 1 0  11.5 1 0  11.75 1 0  12 1 0  12.25 1 0  12.5 1 0  12.75 1 0  13 1 0  13.25 1 0  13.5 1 0  13.75 1 0  14 1 0  14.25 1 0  14.5 1 0  14.75 1 0  15 1 0  15.25 1 0  15.5 1 0  15.75 1 0  16 1 0  16.25 1 0  16.5 1 0  16.75 1 0  17 1 0  17.25 1 0  17.5 1 0  17.75 1 0  18 1 0  18.25 1 0  18.5 1 0  18.75 1 0  19 1 0  19.25 1 0  19.5 1 0  19.75 1 0  20 1 0  20.25 1 0  20.5 1 0  20.75 1 0  21 1 0  21.25 1 0  21.5 1 0  21.75 1 0  22 1 0  22.25 1 0  22.5 1 0  22.75 1 0  23 1 0  23.25 1 0  23.5 1 0  23.75 1 0  24 1 0  24.25 1 0  24.5 1 0  24.75 1 0  25 1 0  0 1.25 0  0.25 1.25 0  0.5 1.25 0  0.75 1.25 0  1 1.25 0  1.25 1.25 0  1.5 1.25 0  1.75 1.25 0  2 1.25 0  2.25 1.25 0  2.5 1.25 0  2.75 1.25 0  3 1.25 0  3.25 1.25 0  3.5 1.25 0  3.75 1.25 0  4 1.25 0  4.25 1.25 0  4.5 1.25 0  4.75 1.25 0  5 1.25 0  5.25 1.25 0  5.5 1.25 0  5.75 1.25 0  6 1.25 0  6.25 1.25 0  6.5 1.25 0  6.75 1.25 0  7 1.25 0  7.25 1.25 0  7.5 1.25 0  7.75 1.25 0  8 1.25 0  8.25 1.25 0  8.5 1.25 0  8.75 1.25 0  9 1.25 0  9.25 1.25 0  9.5 1.25 0  9.75 1.25 0  10 1.25 0  10.25 1.25 0  10.5 1.25 0  10.75 1.25 0  11 1.25 0  11.25 1.25 0  11.5 1.25 0  11.75 1.25 0  12 1.25 0  12.25 1.25 0  12.5 1.25 0  12.75 1.25 0  13 1.25 0  13.25 1.25 0  13.5 1.25 0  13.75 1.25 0  14 1.25 0  14.25 1.25 0  14.5 1.25 0  14.75 1.25 0  15 1.25 0  15.25 1.25 0  15.5 1.25 0  15.75 1.25 0  16 1.25 0  16.25 1.25 0  16.5 1.25 0  16.75 1.25 0  17 1.25 0  17.25 1.25 0  17.5 1.25 0  17.75 1.25 0  18 1.25 0  18.25 1.25 0  18.5 1.25 0  18.75 1.25 0  19 1.25 0  19.25 1.25 0  19.5 1.25 0  19.75 1.25 0  20 1.25 0  20.25 1.25 0  20.5 1.25 0  20.75 1.25 0  21 1.25 0  21.25 1.25 0  21.5 1.25 0  21.75 1.25 0  22 1.25 0  22.25 1.25 0  22.5 1.25 0  22.75 1.25 0  23 1.25 0  23.25 1.25 0  23.5 1.25 0  23.75 1.25 0  24 1.25 0  24.25 1.25 0  24.5 1.25 0  24.75 1.25 0  25 1.25 0  0 1.5 0  0.25 1.5 0  0.5 1.5 0  0.75 1.5 0  1 1.5 0  1.25 1.5 0  1.5 1.5 0  1.75 1.5 0  2 1.5 0  2.25 1.5 0  2.5 1.5 0  2.75 1.5 0  3 1.5 0  3.25 1.5 0  3.5 1.5 0  3.75 1.5 0  4 1.5 0  4.25 1.5 0  4.5 1.5 0  4.75 1.5 0  5 1.5 0  5.25 1.5 0  5.5 1.5 0  5.75 1.5 0  6 1.5 0  6.25 1.5 0  6.5 1.5 0  6.75 1.5 0  7 1.5 0  7.25 1.5 0  7.5 1.5 0  7.75 1.5 0  8 1.5 0  8.25 1.5 0  8.5 1.5 0  8.75 1.5 0  9 1.5 0  9.25 1.5 0  9.5 1.5 0  9.75 1.5 0  10 1.5 0  10.25 1.5 0  10.5 1.5 0  10.75 1.5 0  11 1.5 0  11.25 1.5 0  11.5 1.5 0  11.75 1.5 0  12 1.5 0  12.25 1.5 0  12.5 1.5 0  12.75 1.5 0  13 1.5 0  13.25 1.5 0  13.5 1.5 0  13.75 1.5 0  14 1.5 0  14.25 1.5 0  14.5 1.5 0  14.75 1.5 0  15 1.5 0  15.25 1.5 0  15.5 1.5 0  15.75 1.5 0  16 1.5 0  16.25 1.5 0  16.5 1.5 0  16.75 1.5 0  17 1.5 0  17.25 1.5 0  17.5 1.5 0  17.75 1.5 0  18 1.5 0  18.25 1.5 0  18.5 1.5 0  18.75 1.5 0  19 1.5 0  19.25 1.5 0  19.5 1.5 0  19.75 1.5 0  20 1.5 0  20.25 1.5 0  20.5 1.5 0  20.75 1.5 0  21 1.5 0  21.25 1.5 0  21.5 1.5 0  21.75 1.5 0  22 1.5 0  22.25 1.5 0  22.5 1.5 0  22.75 1.5 0  23 1.5 0  23.25 1.5 0  23.5 1.5 0  23.75 1.5 0  24 1.5 0  24.25 1.5 0  24.5 1.5 0  24.75 1.5 0  25 1.5 0  0 1.75 0  0.25 1.75 0  0.5 1.75 0  0.75 1.75 0  1 1.75 0  1.25 1.75 0  1.5 1.75 0  1.75 1.75 0  2 1.75 0  2.25 1.75 0  2.5 1.75 0  2.75 1.75 0  3 1.75 0  3.25 1.75 0  3.5 1.75 0  3.75 1.75 0  4 1.75 0  4.25 1.75 0  4.5 1.75 0  4.75 1.75 0  5 1.75 0  5.25 1.75 0  5.5 1.75 0  5.75 1.75 0  6 1.75 0  6.25 1.75 0  6.5 1.75 0  6.75 1.75 0  7 1.75 0  7.25 1.75 0  7.5 1.75 0  7.75 1.75 0  8 1.75 0  8.25 1.75 0  8.5 1.75 0  8.75 1.75 0  9 1.75 0  9.25 1.75 0  9.5 1.75 0  9.75 1.75 0  10 1.75 0  10.25 1.75 0  10.5 1.75 0  10.75 1.75 0  11 1.75 0  11.25 1.75 0  11.5 1.75 0  11.75 1.75 0  12 1.75 0  12.25 1.75 0  12.5 1.75 0  12.75 1.75 0  13 1.75 0  13.25 1.75 0  13.5 1.75 0  13.75 1.75 0  14 1.75 0  14.25 1.75 0  14.5 1.75 0  14.75 1.75 0  15 1.75 0  15.25 1.75 0  15.5 1.75 0  15.75 1.75 0  16 1.75 0  16.25 1.75 0  16.5 1.75 0  16.75 1.75 0  17 1.75 0  17.25 1.75 0  17.5 1.75 0  17.75 1.75 0  18 1.75 0  18.25 1.75 0  18.5 1.75 0  18.75 1.75 0  19 1.75 0  19.25 1.75 0  19.5 1.75 0  19.75 1.75 0  20 1.75 0  20.25 1.75 0  20.5 1.75 0  20.75 1.75 0  21 1.75 0  21.25 1.75 0  21.5 1.75 0  21.75 1.75 0  22 1.75 0  22.25 1.75 0  22.5 1.75 0  22.75 1.75 0  23 1.75 0  23.25 1.75 0  23.5 1.75 0  23.75 1.75 0  24 1.75 0  24.25 1.75 0  24.5 1.75 0  24.75 1.75 0  25 1.75 0  0 2 0  0.25 2 0  0.5 2 0  0.75 2 0  1 2 0  1.25 2 0  1.5 2 0  1.75 2 0  2 2 0  2.25 2 0  2.5 2 0  2.75 2 0  3 2 0  3.25 2 0  3.5 2 0  3.75 2 0  4 2 0  4.25 2 0  4.5 2 0  4.75 2 0  5 2 0  5.25 2 0  5.5 2 0  5.75 2 0  6 2 0  6.25 2 0  6.5 2 0  6.75 2 0  7 2 0  7.25 2 0  7.5 2 0  7.75 2 0  8 2 0  8.25 2 0  8.5 2 0  8.75 2 0  9 2 0  9.25 2 0  9.5 2 0  9.75 2 0  10 2 0  10.25 2 0  10.5 2 0  10.75 2 0  11 2 0  11.25 2 0 
[...]
<PointData  Scalars="f_23"> 
<DataArray  type="Float64"  Name="f_23"  format="ascii">9.6815890769605113e-04  1.8098116611972330e-03  3.6668124023209727e-03  5.7101291271840233e-03  7.1624219134207448e-03  7.8568558078433888e-03  8.0317299939560473e-03  7.8011821051338663e-03  7.1804825972065032e-03  6.6490536966580969e-03  7.2498263429153550e-03  9.5922417070272385e-03  1.3522126699339393e-02  1.7948990539063715e-02  2.1010390010611002e-02  2.1428157964905322e-02  1.9383376164163857e-02  1.5922798433048453e-02  1.1720349298138396e-02  6.5260055606294592e-03  2.3318788868230894e-04  -6.3006396410920703e-03  -1.1828133648110081e-02  -1.5644721257957614e-02  -1.8086202424390321e-02  -1.9968653384383504e-02  -2.2188784856219057e-02  -2.5057011101993838e-02  -2.7856811532313525e-02  -2.9617969951220201e-02  -2.9384328587747862e-02  -2.6459944395967536e-02  -2.1344935247906559e-02  -1.5412259556534655e-02  -9.9288626808922108e-03  -5.3248367437657993e-03  -1.5142777662269342e-03  1.6557584339989898e-03  4.4052100317764353e-03  6.7696739517511791e-03  8.4770650408758190e-03  8.9396611871430734e-03  7.7334728514869789e-03  5.2589478598114633e-03  2.2048271444773293e-03  -1.3081390498363851e-03  -5.7112526802712369e-03  -1.1061674281485794e-02  -1.6184170490764708e-02  -1.9351551292143030e-02  -1.9931892301319927e-02  -1.8496287780595689e-02  -1.6014900071546292e-02  -1.3429606096697426e-02  -1.1286561227296680e-02  -9.1969813578648106e-03  -6.2986313053011375e-03  -2.6589067608931856e-03  5.9187994563690376e-04  2.4780313268819064e-03  2.9069383060058769e-03  2.0018830464665306e-03  -2.9749694390530555e-04  -4.1719658389404351e-03  -9.0888704220417078e-03  -1.3798376080478972e-02  -1.7609804802871519e-02  -2.0417067981669989e-02  -2.2012675783847784e-02  -2.1819512732533929e-02  -1.9415077389649878e-02  -1.5075601803622041e-02  -9.7464382531639217e-03  -4.6766912752448384e-03  -6.0212567718567560e-04  2.4904833379486469e-03  5.1775261087366707e-03  7.8535262664196376e-03  9.9073716388901507e-03  9.8183867352366269e-03  6.9810732281878809e-03  2.7722518990527696e-03  -7.0118171265302811e-04  -2.7032969017326625e-03  -3.4570720504234743e-03  -2.5625835350302712e-03  5.6183663203127705e-04  5.0309414536926812e-03  9.3121072177141054e-03  1.3122309835412339e-02  1.6985265419983200e-02  2.0251851935831486e-02  2.1187482705264028e-02  1.8857322095974842e-02  1.4100923117614928e-02  8.6430476748847965e-03  3.8366903846495412e-03  1.0341662445369070e-04  -2.8152387627352073e-03  -4.8460997998490130e-03  -5.4589210469006598e-03  8.2799393965301649e-04  1.6315986592191421e-03  3.5766866014024499e-03  5.8125942545613632e-03  7.4912395889332297e-03  8.3358849659892209e-03  8.5018529680981787e-03  8.2254282211150428e-03  7.6566313316584964e-03  7.1477147770726253e-03  7.5976022342437678e-03  9.7122138343654994e-03  1.3407958597574814e-02  1.7598983582610750e-02  2.0481866151991539e-02  2.0807738905053198e-02  1.8784720624267812e-02  1.5429809347673110e-02  1.1411020466006231e-02  6.4599215853623675e-03  2.6297630028566997e-04  -6.4397585143267187e-03  -1.2266471904726385e-02  -1.6250845303407233e-02  -1.8541578162585809e-02  -2.0034153574351007e-02  -2.1768615062830492e-02  -2.4280656050216582e-02  -2.6987844482921811e-02  -2.8760274252950808e-02  -2.8584489197112664e-02  -2.5785656324850647e-02  -2.0820743943751663e-02  -1.5045503512866203e-02  -9.6902925841704044e-03  -5.1729613236686104e-03  -1.4303192580382145e-03  1.6205038282037887e-03  4.1838709158205801e-03  6.4119011977658985e-03  8.0611519930260649e-03  8.6020636078351642e-03  7.6303283220823361e-03  5.4638307964828600e-03  2.6357729390058069e-03  -8.0514220461476546e-04  -5.2288205718035996e-03  -1.0570861702658330e-02  -1.5671494943458514e-02  -1.8822037349206233e-02  -1.9329829685247366e-02  -1.7820395084006107e-02  -1.5341545468523971e-02  -1.2818136873605269e-02  -1.0769790226402632e-02  -8.8704596036649208e-03  -6.2842351053503760e-03  -2.9851547494083811e-03  -6.1796111569716250e-05  1.4917708166835033e-03  1.6601738714123197e-03  6.7634571711135615e-04  -1.4709942435276754e-03  -4.9687994069485559e-03  -9.5182344202341500e-03  -1.3996178354049911e-02  -1.7607561560844132e-02  -2.0182986301281344e-02  -2.1591765881435430e-02  -2.1380512555848042e-02  -1.9080050834590464e-02  -1.4813308362062735e-02  -9.4841302992575323e-03  -4.4011734128727702e-03  -3.0651608873182018e-04  2.8392986945376154e-03  5.5214597702229074e-03  8.0333175145017033e-03  9.8282847916388253e-03  9.5393438540310963e-03  6.5770671600715773e-03  2.2503196015436575e-03  -1.3336230341077305e-03  -3.3820163790563075e-03  -4.2007584694459124e-03  -3.4872816642452140e-03  -5.6254178888538926e-04  3.9432784219973578e-03  8.4776390296054226e-03  1.2528387677607767e-02  1.6516219576616035e-02  1.9880305097590090e-02  2.0937102082268424e-02  1.8750920614165091e-02  1.4112679822667035e-02  8.7415963102364432e-03  4.0091817921767111e-03  3.4116853824069706e-04  -2.5787228430382060e-03  -4.6912507556230599e-03  -5.4397271333930927e-03  3.5164813304570805e-04  1.2193008967892158e-03  3.3465049564661438e-03  5.9027778217866627e-03  8.0124454400629565e-03  9.2642287800724175e-03  9.5964351745501750e-03  9.3056654471379112e-03  8.8301556997285799e-03  8.4375418222234887e-03  8.7082760260291589e-03  1.0349037554372111e-02  1.3464279668776802e-02  1.6999457312015180e-02  1.9227056086216752e-02  1.9084008239198817e-02  1.6940103956924819e-02  1.3831400405400148e-02  1.0294694288124968e-02  5.9236664190576247e-03  6.7723877413964985e-05  -6.8109014925726834e-03  -1.3187919402799102e-02  -1.7613826181998801e-02  -1.9729737751794992e-02  -2.0352079339171526e-02  -2.0890239056034772e-02  -2.2360187871200896e-02  -2.4575656813471358e-02  -2.6276623746914925e-02  -2.6200553497730934e-02  -2.3663176525790433e-02  -1.9096576712422573e-02  -1.3791304925962445e-02  -8.8842368695736893e-03  -4.6803446108560466e-03  -1.1932422129009551e-03  1.5150388527155189e-03  3.6104890189646924e-03  5.4781631700654117e-03  7.0437928392228771e-03  7.7660388770238644e-03  7.2999224623655004e-03  5.8951047511557782e-03  3.7991223484805212e-03  7.8384519218978809e-04  -3.5530139483859460e-03  -8.8913918885829071e-03  -1.3876234822414237e-02  -1.6861748727010614e-02  -1.7201429746129589e-02  -1.5589842299599302e-02  -1.3209000917341352e-02  -1.0968129098584301e-02  -9.3307936119362746e-03  -7.9740430955411550e-03  -6.0832913227240690e-03  -3.5758035163841900e-03  -1.4920756495174284e-03  -8.1696912303648472e-04  -1.3548058921522505e-03  -2.5431852176061027e-03  -4.3691151719646125e-03  -7.0483676550981960e-03  -1.0613802297252641e-02  -1.4334768089545926e-02  -1.7397130183158072e-02  -1.9509292363873325e-02  -2.0543137404810626e-02  -2.0199864219545956e-02  -1.8058484295151833e-02  -1.4037034399605875e-02  -8.8504832768708398e-03  -3.8216692298585473e-03  2.7932926101002260e-04  3.5474916067298355e-03  6.3263832446558551e-03  8.5826900218079344e-03  9.7468739416162985e-03  8.7858519420939106e-03  5.3953987606992684e-03  8.9168546723836662e-04  -2.7485827390431898e-03  -4.8098907251742365e-03  -5.7518180410253217e-03  -5.3745025061427455e-03  -2.8574668174910470e-03  1.5282111335642771e-03  6.3946383343776395e-03  1.0954119464125769e-02  1.5293710076981651e-02  1.8858743085001999e-02  2.0077607127365310e-02  1.8157955300503067e-02  1.3942417928957529e-02  9.0466017760478905e-03  4.7275252567296443e-03  1.3261535641799693e-03  -1.5658231635685834e-03  -3.8508901231270503e-03  -4.7292270579539896e-03  1.0089388527822721e-04  9.7591366775513810e-04  3.1383117715361188e-03  5.8104322461314493e-03  8.1966025523071435e-03  9.8716747170807684e-03  1.0627300653017388e-02  1.0681359583988663e-02  1.0517491929665309e-02  1.0346792309754835e-02  1.0466771162698967e-02  1.1552703362435666e-02  1.3797919201603530e-02  1.6257690849175815e-02  1.7463175392490624e-02  1.6635377960472045e-02  1.4213626483971210e-02  1.1222546545730117e-02  8.1217509428668962e-03  4.3608274727514095e-03  -9.3139246906345178e-04  -7.6230588681760678e-03  -1.4261984088336210e-02  -1.9051969089503028e-02  -2.1064386410571068e-02  -2.0816436254883008e-02  -1.9884574271316298e-02  -1.9832310135530166e-02  -2.1027869377024992e-02  -2.2356473165836131e-02  -2.2391541030451819e-02  -2.0332550775229170e-02  -1.6509328741787687e-02  -1.1993194973715853e-02  -7.7114841701934186e-03  -3.9689747844583768e-03  -8.7919490923812514e-04  1.3497008919654840e-03  2.8804460267838642e-03  4.2640853562851671e-03  5.7020273562674029e-03  6.7213233725078782e-03  6.9180685503188906e-03  6.4201166886887094e-03  5.2354690615294902e-03  2.9982213730809525e-03  -7.8054148737797678e-04  -5.7490199814678932e-03  -1.0407514620042000e-02  -1.3134027812726859e-02  -1.3402077055505252e-02  -1.1917458077726092e-02  -9.8429599304479670e-03  -8.0912468753783912e-03  -7.0712227899366068e-03  -6.4868574520696460e-03  -5.5499273154571479e-03  -4.0622126723468171e-03  -3.0061247640292424e-03  -3.3664277076989719e-03  -4.7129724488089763e-03  -6.0898199028864919e-03  -7.4078397195134690e-03  -9.0850958158818860e-03  -1.1471312514748710e-02  -1.4245865483583883e-02  -1.6687969959707578e-02  -1.8338132088414599e-02  -1.9013002356866846e-02  -1.8513618462424011e-02  -1.6516073997736684e-02  -1.2918628509250418e-02  -8.1711971666807003e-03  -3.3236901947266378e-03  8.5795609267601031e-04  4.3323521735354163e-03  7.1721224800474137e-03  9.0179631479608592e-03  9.3082493608277334e-03  7.5587732430477447e-03  3.8910331893903774e-03  -4.6090637477053830e-04  -3.8828624767005175e-03  -5.7974996053327824e-03  -6.7179808290498688e-03  -6.5750942058353055e-03  -4.5097486928341981e-03  -4.6715397427806701e-04  4.4766702420679910e-03  9.3533614678990781e-03  1.3760267178807675e-02  1.7150869186662757e-02  1.8309708105741385e-02  1.6700581289622492e-02  1.3241179266049206e-02  9.3599023498986047e-03  5.9316822966341666e-03  3.0810434722993696e-03  3.8571391989816875e-04  -1.9557978529133827e-03  -2.9396984573380959e-03  7.7204186524850143e-04  1.5583860273239332e-03  3.5101189238520305e-03  5.8856573209498967e-03  8.0781202730962603e-03  9.8269710724365970e-03  1.1024188639691714e-02  1.1778773513359615e-02  1.2276048828168762e-02  1.2489322240891613e-02  1.2548596314658624e-02  1.3094859252197428e-02  1.4320279408240384e-02  1.5379415554153588e-02  1.5286155498985514e-02  1.3676082148703170e-02  1.0907758738220934e-02  7.8104342478425466e-03  4.8561332483123840e-03  1.4880205941939734e-03  -3.2149492998410495e-03  -9.3134619138870427e-03  -1.5586771890857512e-02  -2.0199879545968556e-02  -2.1897975645757392e-02  -2.0882441230796595e-02  -1.8634435822720213e-02  -1.7000543464865302e-02  -1.6912088998113865e-02  -1.7651350856473878e-02  -1.7800795847880094e-02  -1.6394818137545963e-02  -1.3569289568694916e-02  -1.0085771083587242e-02  -6.5217243365885760e-03  -3.2498402514810521e-03  -5.8914162559989107e-04  1.1864286823701398e-03  2.2182962215020097e-03  3.1591760048596566e-03  4.4222652518598471e-03  5.6727330194775785e-03  6.4126194846667690e-03  6.6209902984021296e-03  6.1867544359423673e-03  4.7777860859426532e-03  1.9703389191379202e-03  -2.0717782751763216e-03  -6.0654361450543015e-03  -8.4585983884123504e-03  -8.7612967969143800e-03  -7.6341303033678753e-03  -6.0546267228537730e-03  -4.7932199333238319e-03  -4.2625373534236873e-03  -4.3335990710345043e-03  -4.3408775053296088e-03  -3.9258329816585459e-03  -3.8891648653167688e-03  -5.1492437793472573e-03  -7.1101329726825247e-03  -8.4806185188762949e-03  -9.1165897655506832e-03  -9.7850999089853629e-03  -1.1222025910248413e-02  -1.3329975580360892e-02  -1.5392824439556906e-02  -1.6730424392639744e-02  -1.7039433709143414e-02  -1.6270805335762126e-02  -1.4342532695771992e-02  -1.1199020081510460e-02  -7.0928036190650544e-03  -2.6396645230590782e-03  1.4834630804695472e-03  5.0002871916397787e-03  7.6568616893224932e-03  8.8322456920472223e-03  8.1348734749696373e-03  5.7613870878182602e-03  2.2678764136485566e-03  -1.3877552957092460e-03  -4.1416143848774043e-03  -5.6346008360273940e-03  -6.3048537242910811e-03  -6.1074742600421214e-03  -4.2720428832275191e-03  -6.5584329769198004e-04  3.9077923694439574e-03  8.4598099037311095e-03  1.2261250487348541e-02  1.4814553146220665e-02  1.5470493606024259e-02  1.4020876845106474e-02  1.1405186586174834e-02  8.8084293842306625e-03  6.6528553035601840e-03  4.7228080397912937e-03  2.6048186851502773e-03  5.5182913356364690e-04  -3.8407685039681949e-04  2.5281368768137929e-03  3.1903559088565267e-03  4.7988745195076486e-03  6.5957854304280290e-03  8.1468037316940033e-03  9.4680291561295704e-03  1.0758168169290087e-02  1.2137024084558997e-02  1.3427529955169605e-02  1.4223075546452793e-02  1.4441379634205508e-02  1.4592748821375989e-02  1.4843954246697872e-02  1.4455857207648106e-02  1.2943378588028125e-02  1.0509625790175893e-02  7.4665181944927111e-03  4.2542098525280934e-03  1.2782066212904471e-03  -1.8764503442090729e-03  -6.0572820203230624e-03  -1.1338026138632487e-02  -1.6753187028480589e-02  -2.0691760165344106e-02  -2.1814871489515632e-02  -2.0124681027449950e-02  -1.6895682205873484e-02  -1.3987096620543640e-02  -1.2744668779197844e-02  -1.2909981650860634e-02  -1.3194212250883370e-02  -1.2472852917351975e-02  -1.0610667900141061e-02  -8.1043815868381986e-03  -5.2779455805630959e-03  -2.4362587441763002e-03  -9.3808232604717124e-05  1.3625011671171575e-03  2.0070223218487250e-03  2.5307295635585794e-03  3.5486761193139899e-03  4.8775754628326016e-03  5.9019980971001789e-03  6.4533063430065639e-03  6.4400915600135418e-03  5.6421274181252421e-03  3.8378428646131512e-03  1.0201262249791988e-03  -2.0770874823400690e-03  -4.1821935356509826e-03  -4.6871217881185780e-03  -4.0656620075327403e-03  -3.0435842292510680e-03  -2.1270089615090205e-03  -1.6795115640934261e-03  -1.9105318812640448e-03  -2.4680908357680386e-03  -2.9244319805073870e-03  -3.7296423026037303e-03  -5.6007681133374600e-03  -7.8325157187286373e-03  -8.9469902114376314e-03  -8.7777448649293335e-03  -8.5171350245616586e-03  -9.3178150133089617e-03  -1.1178992653628371e-02  -1.3188787735769817e-02  -1.4431590329365335e-02  -1.4472290964981897e-02  -1.3402986048673416e-02  -1.1452377623096636e-02  -8.6695578114785333e-03  -5.1981368454662863e-03  -1.3572627080534940e-03  2.2795263197292370e-03  5.3001790113273058e-03  7.3355531140076200e-03  7.6719002756543073e-03  6.1068930948347715e-03  3.3806194203404661e-03  4.1529122544313869e-04  -2.1619614982936000e-03  -3.8752404937008982e-03  -4.6461606624046631e-03  -4.8001296157692370e-03  -4.2504098016209069e-03  -2.3942394693006841e-03  8.0647641569016207e-04  4.5755024656272160e-03  8.1114801540337102e-03  1.0713486781583542e-02  1.1977219935097372e-02  1.1828502160030025e-02  1.0372583423675434e-02  8.4148113154943124e-03  6.8811116906633456e-03  5.9066667249663730e-03  5.0782533927509243e-03  3.9586578731813094e-03  2.6734440713668981e-03  2.0335193788465450e-03  5.1539305637604647e-03  5.6647206309645530e-03  6.9488801263447499e-03  8.2009881175291333e-03  9.0089528464854275e-03  9.5759587155354597e-03  1.0421679899455107e-02  1.1823916780892433e-02  1.3544712351520220e-02  1.4979073485323543e-02  1.5716201147924991e-02  1.5847770884877804e-02  1.5396935827909828e-02  1.3785433920308968e-02  1.0919545692082642e-02  7.6164523769991655e-03  4.4101025003326971e-03  1.4032188610573720e-03  -1.3151289472733898e-03  -4.1344480709682363e-03  -7.7798147181705156e-03  -1.2232108069248264e-02  -1.6683850179646603e-02  -1.9850118104694187e-02  -2.0480699667850717e-02  -1.8402285886288849e-02  -1.4676782113589096e-02  -1.1014923708133215e-02  -8.9537601576438215e-03  -8.6417132828586329e-03  -8.9733014742261266e-03  -8.7428860964101872e-03  -7.6110008811013487e-03  -5.8360274317853294e-03  -3.6614095527977538e-03  -1.2909509107546140e-03  8.3218261543470471e-04  2.1964371858326204e-03  2.6436998141208361e-03  2.8354366286286580e-03  3.5810153490242452e-03  4.8317625647509108e-03  5.9105179961414173e-03  6.4595870179980242e-03  6.4954997594622865e-03  5.9879243284288106e-03  4.9137928836221244e-03  3.2015139732693098e-03  1.0216183860885914e-03  -8.8704843329752848e-04  -1.7960488462734582e-03  -1.8373578650607058e-03  -1.4105752710268052e-03  -6.6419426613302025e-04  7.4789286332082100e-05  2.1439528548649163e-04  -3.7363689971742469e-04  -1.3224500978604261e-03  -2.6754620782227035e-03  -4.7515565319860634e-03  -6.8570262399610324e-03  -7.5709191201862886e-03  -6.7204290564713814e-03  -5.7462504212394787e-03  -6.1402658222143979e-03  -7.9787915622119340e-03  -1.0157631547362097e-02  -1.1514319578091599e-02  -1.1545730965872697e-02  -1.0376056587194779e-02  -8.3729021732851638e-03  -5.7746604056906868e-03  -2.8166258459293280e-03  2.4010043720901778e-04  2.9013717888977954e-03  4.8509870424779753e-03  5.9010017492008128e-03  5.4436970146386297e-03  3.3624295842737883e-03  5.9185135484246835e-04  -1.7591928210709540e-03  -3.2266278167438962e-03  -3.7670719888345701e-03  -3.5947825157556703e-03  -3.0122942200493481e-03  -1.9516331547515902e-03  -6.2854928355476618e-05  2.6352824441207645e-03  5.4596124945825554e-03  7.7472711193600548e-03  9.0715821772808097e-03  9.1354070849066528e-03  8.1967921530078300e-03  6.7181603455162640e-03  5.2756232135366113e-03  4.4088785583657223e-03  4.1138657366682815e-03  4.0864676688912097e-03  3.9958000252436308e-03  3.6975686831745617e-03  3.4898445579660529e-03  8.2061783696382729e-03  8.5506145826948730e-03  9.5296294884157935e-03  1.0405725183612574e-02  1.0659676561617204e-02  1.0480800054767741e-02  1.0540745979678048e-02  1.1324245557739991e-02  1.2879320835454715e-02  1.4717658852820418e-02  1.6194701539236387e-02  1.6753319905919089e-02  1.5993789564269299e-02  1.3452445909072597e-02  9.3844078781217203e-03  5.1954629227837622e-03  1.9013517081084552e-03  -5.2290118261121856e-04  -2.4933548504870008e-03  -4.5800273313958495e-03  -7.4876934180813978e-03  -1.1104029638822762e-02  -1.4637764146339318e-02  -1.7083124887941951e-02  -1.7437154500418762e-02  -1.5430740868072222e-02  -1.1788200731314287e-02  -7.9747802819737802e-03  -5.4970785712657585e-03  -4.7566384819844312e-03  -4.9470579708809706e-03  -4.9525815127246216e-03  -4.2966328607704548e-03  -3.0990436814033991e-03  -1.5250673129506480e-03  3.1171347939951930e-04  2.1687006811297984e-03  3.5943677760254442e-03  4.1846536688208832e-03  4.3647320628718636e-03  4.9471690842834244e-03  6.0196839101044888e-03  6.9264472014151568e-03  7.1807386726549976e-03  6.8620584334497838e-03  6.2275639111823303e-03  5.4774589923944576e-03  4.4983691486859120e-03  3.0540693411668539e-03  1.3433992536527738e-03  -2.5102478654544902e-05  -8.4213379490273154e-04  -1.0714015452072843e-03  -4.5728192222280905e-04  7.2254784116069885e-04  1.4899421492687165e-03  1.2226692060179531e-03  1.6993961566922058e-04  -1.3808745725436750e-03  -3.2960562880575456e-03  -4.8967522671415414e-03  -5.0987556852962615e-03  -3.8604338970710133e-03  -2.5218737997559216e-03  -2.6646916864227909e-03  -4.4988717243346727e-03  -6.9258003406006425e-03  -8.6154532635418658e-03  -8.9435292383953958e-03  -7.9259147684994317e-03  -5.8734988840981883e-03  -3.2488539774475872e-03  -5.7732961383119932e-04  1.6778787129176789e-03  3.1398627054457632e-03  3.7534679680770130e-03  3.6891181788883238e-03  2.5837135192307210e-03  3.1223376520271822e-04  -2.2879674482422217e-03  -4.1073795405264504e-03  -4.6586053372933848e-03  -4.1234886117917143e-03  -3.0041737171334925e-03  -1.6768215594670079e-03  -8.5762080160934310e-05  1.7997873900133263e-03  3.8875387505521268e-03  5.7952556542755660e-03  7.0553840654425555e-03  7.4726088222329982e-03  6.8882255747004925e-03  5.5346876805962026e-03  4.1346417659683596e-03  3.1968153825496517e-03  2.8154202907232436e-03  2.7584152667152451e-03  2.9271396800016453e-03  3.3143838806733127e-03  3.7001057416114602e-03  3.8618754932193966e-03  1.0619597924217149e-02  1.0875840972067247e-02  1.1584854412191729e-02  1.2181142458483970e-02  1.2111076092915354e-02  1.14