<?xml version="1.0"?>
<VTKFile type="UnstructuredGrid"  version="0.1"  >
<UnstructuredGrid>
<Piece  NumberOfPoints="10201" NumberOfCells="20000">
<Points>
<DataArray  type="Float64"  NumberOfComponents="3"  format="ascii">0 0 0  0.25 0 0  0.5 0 0  0.75 0 0  1 0 0  1.25 0 0  1.5 0 0  1.75 0 0  2 0 0  2.25 0 0  2.5 0 0  2.75 0 0  3 0 0  3.25 0 0  3.5 0 0  3.75 0 0  4 0 0  4.25 0 0  4.5 0 0  4.75 0 0  5 0 0  5.25 0 0  5.5 0 0  5.75 0 0  6 0 0  6.25 0 0  6.5 0 0  6.75 0 0  7 0 0  7.25 0 0  7.5 0 0  7.75 0 0  8 0 0  8.25 0 0  8.5 0 0  8.75 0 0  9 0 0  9.25 0 0  9.5 0 0  9.75 0 0  10 0 0  10.25 0 0  10.5 0 0  10.75 0 0  11 0 0  11.25 0 0  11.5 0 0  11.75 0 0  12 0 0  12.25 0 0  12.5 0 0  12.75 0 0  13 0 0  13.25 0 0  13.5 0 0  13.75 0 0  14 0 0  14.25 0 0  14.5 0 0  14.75 0 0  15 0 0  15.25 0 0  15.5 0 0  15.75 0 0  16 0 0  16.25 0 0  16.5 0 0  16.75 0 0  17 0 0  17.25 0 0  17.5 0 0  17.75 0 0  18 0 0  18.25 0 0  18.5 0 0  18.75 0 0  19 0 0  19.25 0 0  19.5 0 0  19.75 0 0  20 0 0  20.25 0 0  20.5 0 0  20.75 0 0  21 0 0  21.25 0 0  21.5 0 0  21.75 0 0  22 0 0  22.25 0 0  22.5 0 0  22.75 0 0  23 0 0  23.25 0 0  23.5 0 0  23.75 0 0  24 0 0  24.25 0 0  24.5 0 0  24.75 0 0  25 0 0  0 0.25 0  0.25 0.25 0  0.5 0.25 0  0.75 0.25 0  1 0.25 0  1.25 0.25 0  1.5 0.25 0  1.75 0.25 0  2 0.25 0  2.25 0.25 0  2.5 0.25 0  2.75 0.25 0  3 0.25 0  3.25 0.25 0  3.5 0.25 0  3.75 0.25 0  4 0.25 0  4.25 0.25 0  4.5 0.25 0  4.75 0.25 0  5 0.25 0  5.25 0.25 0  5.5 0.25 0  5.75 0.25 0  6 0.25 0  6.25 0.25 0  6.5 0.25 0  6.75 0.25 0  7 0.25 0  7.25 0.25 0  7.5 0.25 0  7.75 0.25 0  8 0.25 0  8.25 0.25 0  8.5 0.25 0  8.75 0.25 0  9 0.25 0  9.25 0.25 0  9.5 0.25 0  9.75 0.25 0  10 0.25 0  10.25 0.25 0  10.5 0.25 0  10.75 0.25 0  11 0.25 0  11.25 0.25 0  11.5 0.25 0  11.75 0.25 0  12 0.25 0  12.25 0.25 0  12.5 0.25 0  12.75 0.25 0  13 0.25 0  13.25 0.25 0  13.5 0.25 0  13.75 0.25 0  14 0.25 0  14.25 0.25 0  14.5 0.25 0  14.75 0.25 0  15 0.25 0  15.25 0.25 0  15.5 0.25 0  15.75 0.25 0  16 0.25 0  16.25 0.25 0  16.5 0.25 0  16.75 0.25 0  17 0.25 0  17.25 0.25 0  17.5 0.25 0  17.75 0.25 0  18 0.25 0  18.25 0.25 0  18.5 0.25 0  18.75 0.25 0  19 0.25 0  19.25 0.25 0  19.5 0.25 0  19.75 0.25 0  20 0.25 0  20.25 0.25 0  20.5 0.25 0  20.75 0.25 0  21 0.25 0  21.25 0.25 0  21.5 0.25 0  21.75 0.25 0  22 0.25 0  22.25 0.25 0  22.5 0.25 0  22.75 0.25 0  23 0.25 0  23.25 0.25 0  23.5 0.25 0  23.75 0.25 0  24 0.25 0  24.25 0.25 0  24.5 0.25 0  24.75 0.25 0  25 0.25 0  0 0.5 0  0.25 0.5 0  0.5 0.5 0  0.75 0.5 0  1 0.5 0  1.25 0.5 0  1.5 0.5 0  1.75 0.5 0  2 0.5 0  2.25 0.5 0  2.5 0.5 0  2.75 0.5 0  3 0.5 0  3.25 0.5 0  3.5 0.5 0  3.75 0.5 0  4 0.5 0  4.25 0.5 0  4.5 0.5 0  4.75 0.5 0  5 0.5 0  5.25 0.5 0  5.5 0.5 0  5.75 0.5 0  6 0.5 0  6.25 0.5 0  6.5 0.5 0  6.75 0.5 0  7 0.5 0  7.25 0.5 0  7.5 0.5 0  7.75 0.5 0  8 0.5 0  8.25 0.5 0  8.5 0.5 0  8.75 0.5 0  9 0.5 0  9.25 0.5 0  9.5 0.5 0  9.75 0.5 0  10 0.5 0  10.25 0.5 0  10.5 0.5 0  10.75 0.5 0  11 0.5 0  11.25 0.5 0  11.5 0.5 0  11.75 0.5 0  12 0.5 0  12.25 0.5 0  12.5 0.5 0  12.75 0.5 0  13 0.5 0  13.25 0.5 0  13.5 0.5 0  13.75 0.5 0  14 0.5 0  14.25 0.5 0  14.5 0.5 0  14.75 0.5 0  15 0.5 0  15.25 0.5 0  15.5 0.5 0  15.75 0.5 0  16 0.5 0  16.25 0.5 0  16.5 0.5 0  16.75 0.5 0  17 0.5 0  17.25 0.5 0  17.5 0.5 0  17.75 0.5 0  18 0.5 0  18.25 0.5 0  18.5 0.5 0  18.75 0.5 0  19 0.5 0  19.25 0.5 0  19.5 0.5 0  19.75 0.5 0  20 0.5 0  20.25 0.5 0  20.5 0.5 0  20.75 0.5 0  21 0.5 0  21.25 0.5 0  21.5 0.5 0  21.75 0.5 0  22 0.5 0  22.25 0.5 0  22.5 0.5 0  22.75 0.5 0  23 0.5 0  23.25 0.5 0  23.5 0.5 0  23.75 0.5 0  24 0.5 0  24.25 0.5 0  24.5 0.5 0  24.75 0.5 0  25 0.5 0  0 0.75 0  0.25 0.75 0  0.5 0.75 0  0.75 0.75 0  1 0.75 0  1.25 0.75 0  1.5 0.75 0  1.75 0.75 0  2 0.75 0  2.25 0.75 0  2.5 0.75 0  2.75 0.75 0  3 0.75 0  3.25 0.75 0  3.5 0.75 0  3.75 0.75 0  4 0.75 0  4.25 0.75 0  4.5 0.75 0  4.75 0.75 0  5 0.75 0  5.25 0.75 0  5.5 0.75 0  5.75 0.75 0  6 0.75 0  6.25 0.75 0  6.5 0.75 0  6.75 0.75 0  7 0.75 0  7.25 0.75 0  7.5 0.75 0  7.75 0.75 0  8 0.75 0  8.25 0.75 0  8.5 0.75 0  8.75 0.75 0  9 0.75 0  9.25 0.75 0  9.5 0.75 0  9.75 0.75 0  10 0.75 0  10.25 0.75 0  10.5 0.75 0  10.75 0.75 0  11 0.75 0  11.25 0.75 0  11.5 0.75 0  11.75 0.75 0  12 0.75 0  12.25 0.75 0  12.5 0.75 0  12.75 0.75 0  13 0.75 0  13.25 0.75 0  13.5 0.75 0  13.75 0.75 0  14 0.75 0  14.25 0.75 0  14.5 0.75 0  14.75 0.75 0  15 0.75 0  15.25 0.75 0  15.5 0.75 0  15.75 0.75 0  16 0.75 0  16.25 0.75 0  16.5 0.75 0  16.75 0.75 0  17 0.75 0  17.25 0.75 0  17.5 0.75 0  17.75 0.75 0  18 0.75 0  18.25 0.75 0  18.5 0.75 0  18.75 0.75 0  19 0.75 0  19.25 0.75 0  19.5 0.75 0  19.75 0.75 0  20 0.75 0  20.25 0.75 0  20.5 0.75 0  20.75 0.75 0  21 0.75 0  21.25 0.75 0  21.5 0.75 0  21.75 0.75 0  22 0.75 0  22.25 0.75 0  22.5 0.75 0  22.75 0.75 0  23 0.75 0  23.25 0.75 0  23.5 0.75 0  23.75 0.75 0  24 0.75 0  24.25 0.75 0  24.5 0.75 0  24.75 0.75 0  25 0.75 0  0 1 0  0.25 1 0  0.5 1 0  0.75 1 0  1 1 0  1.25 1 0  1.5 1 0  1.75 1 0  2 1 0  2.25 1 0  2.5 1 0  2.75 1 0  3 1 0  3.25 1 0  3.5 1 0  3.75 1 0  4 1 0  4.25 1 0  4.5 1 0  4.75 1 0  5 1 0  5.25 1 0  5.5 1 0  5.75 1 0  6 1 0  6.25 1 0  6.5 1 0  6.75 1 0  7 1 0  7.25 1 0  7.5 1 0  7.75 1 0  8 1 0  8.25 1 0  8.5 1 0  8.75 1 0  9 1 0  9.25 1 0  9.5 1 0  9.75 1 0  10 1 0  10.25 1 0  10.5 1 0  10.75 1 0  11 1 0  11.25 1 0  11.5 1 0  11.75 1 0  12 1 0  12.25 1 0  12.5 1 0  12.75 1 0  13 1 0  13.25 1 0  13.5 1 0  13.75 1 0  14 1 0  14.25 1 0  14.5 1 0  14.75 1 0  15 1 0  15.25 1 0  15.5 1 0  15.75 1 0  16 1 0  16.25 1 0  16.5 1 0  16.75 1 0  17 1 0  17.25 1 0  17.5 1 0  17.75 1 0  18 1 0  18.25 1 0  18.5 1 0  18.75 1 0  19 1 0  19.25 1 0  19.5 1 0  19.75 1 0  20 1 0  20.25 1 0  20.5 1 0  20.75 1 0  21 1 0  21.25 1 0  21.5 1 0  21.75 1 0  22 1 0  22.25 1 0  22.5 1 0  22.75 1 0  23 1 0  23.25 1 0  23.5 1 0  23.75 1 0  24 1 0  24.25 1 0  24.5 1 0  24.75 1 0  25 1 0  0 1.25 0  0.25 1.25 0  0.5 1.25 0  0.75 1.25 0  1 1.25 0  1.25 1.25 0  1.5 1.25 0  1.75 1.25 0  2 1.25 0  2.25 1.25 0  2.5 1.25 0  2.75 1.25 0  3 1.25 0  3.25 1.25 0  3.5 1.25 0  3.75 1.25 0  4 1.25 0  4.25 1.25 0  4.5 1.25 0  4.75 1.25 0  5 1.25 0  5.25 1.25 0  5.5 1.25 0  5.75 1.25 0  6 1.25 0  6.25 1.25 0  6.5 1.25 0  6.75 1.25 0  7 1.25 0  7.25 1.25 0  7.5 1.25 0  7.75 1.25 0  8 1.25 0  8.25 1.25 0  8.5 1.25 0  8.75 1.25 0  9 1.25 0  9.25 1.25 0  9.5 1.25 0  9.75 1.25 0  10 1.25 0  10.25 1.25 0  10.5 1.25 0  10.75 1.25 0  11 1.25 0  11.25 1.25 0  11.5 1.25 0  11.75 1.25 0  12 1.25 0  12.25 1.25 0  12.5 1.25 0  12.75 1.25 0  13 1.25 0  13.25 1.25 0  13.5 1.25 0  13.75 1.25 0  14 1.25 0  14.25 1.25 0  14.5 1.25 0  14.75 1.25 0  15 1.25 0  15.25 1.25 0  15.5 1.25 0  15.75 1.25 0  16 1.25 0  16.25 1.25 0  16.5 1.25 0  16.75 1.25 0  17 1.25 0  17.25 1.25 0  17.5 1.25 0  17.75 1.25 0  18 1.25 0  18.25 1.25 0  18.5 1.25 0  18.75 1.25 0  19 1.25 0  19.25 1.25 0  19.5 1.25 0  19.75 1.25 0  20 1.25 0  20.25 1.25 0  20.5 1.25 0  20.75 1.25 0  21 1.25 0  21.25 1.25 0  21.5 1.25 0  21.75 1.25 0  22 1.25 0  22.25 1.25 0  22.5 1.25 0  22.75 1.25 0  23 1.25 0  23.25 1.25 0  23.5 1.25 0  23.75 1.25 0  24 1.25 0  24.25 1.25 0  24.5 1.25 0  24.75 1.25 0  25 1.25 0  0 1.5 0  0.25 1.5 0  0.5 1.5 0  0.75 1.5 0  1 1.5 0  1.25 1.5 0  1.5 1.5 0  1.75 1.5 0  2 1.5 0  2.25 1.5 0  2.5 1.5 0  2.75 1.5 0  3 1.5 0  3.25 1.5 0  3.5 1.5 0  3.75 1.5 0  4 1.5 0  4.25 1.5 0  4.5 1.5 0  4.75 1.5 0  5 1.5 0  5.25 1.5 0  5.5 1.5 0  5.75 1.5 0  6 1.5 0  6.25 1.5 0  6.5 1.5 0  6.75 1.5 0  7 1.5 0  7.25 1.5 0  7.5 1.5 0  7.75 1.5 0  8 1.5 0  8.25 1.5 0  8.5 1.5 0  8.75 1.5 0  9 1.5 0  9.25 1.5 0  9.5 1.5 0  9.75 1.5 0  10 1.5 0  10.25 1.5 0  10.5 1.5 0  10.75 1.5 0  11 1.5 0  11.25 1.5 0  11.5 1.5 0  11.75 1.5 0  12 1.5 0  12.25 1.5 0  12.5 1.5 0  12.75 1.5 0  13 1.5 0  13.25 1.5 0  13.5 1.5 0  13.75 1.5 0  14 1.5 0  14.25 1.5 0  14.5 1.5 0  14.75 1.5 0  15 1.5 0  15.25 1.5 0  15.5 1.5 0  15.75 1.5 0  16 1.5 0  16.25 1.5 0  16.5 1.5 0  16.75 1.5 0  17 1.5 0  17.25 1.5 0  17.5 1.5 0  17.75 1.5 0  18 1.5 0  18.25 1.5 0  18.5 1.5 0  18.75 1.5 0  19 1.5 0  19.25 1.5 0  19.5 1.5 0  19.75 1.5 0  20 1.5 0  20.25 1.5 0  20.5 1.5 0  20.75 1.5 0  21 1.5 0  21.25 1.5 0  21.5 1.5 0  21.75 1.5 0  22 1.5 0  22.25 1.5 0  22.5 1.5 0  22.75 1.5 0  23 1.5 0  23.25 1.5 0  23.5 1.5 0  23.75 1.5 0  24 1.5 0  24.25 1.5 0  24.5 1.5 0  24.75 1.5 0  25 1.5 0  0 1.75 0  0.25 1.75 0  0.5 1.75 0  0.75 1.75 0  1 1.75 0  1.25 1.75 0  1.5 1.75 0  1.75 1.75 0  2 1.75 0  2.25 1.75 0  2.5 1.75 0  2.75 1.75 0  3 1.75 0  3.25 1.75 0  3.5 1.75 0  3.75 1.75 0  4 1.75 0  4.25 1.75 0  4.5 1.75 0  4.75 1.75 0  5 1.75 0  5.25 1.75 0  5.5 1.75 0  5.75 1.75 0  6 1.75 0  6.25 1.75 0  6.5 1.75 0  6.75 1.75 0  7 1.75 0  7.25 1.75 0  7.5 1.75 0  7.75 1.75 0  8 1.75 0  8.25 1.75 0  8.5 1.75 0  8.75 1.75 0  9 1.75 0  9.25 1.75 0  9.5 1.75 0  9.75 1.75 0  10 1.75 0  10.25 1.75 0  10.5 1.75 0  10.75 1.75 0  11 1.75 0  11.25 1.75 0  11.5 1.75 0  11.75 1.75 0  12 1.75 0  12.25 1.75 0  12.5 1.75 0  12.75 1.75 0  13 1.75 0  13.25 1.75 0  13.5 1.75 0  13.75 1.75 0  14 1.75 0  14.25 1.75 0  14.5 1.75 0  14.75 1.75 0  15 1.75 0  15.25 1.75 0  15.5 1.75 0  15.75 1.75 0  16 1.75 0  16.25 1.75 0  16.5 1.75 0  16.75 1.75 0  17 1.75 0  17.25 1.75 0  17.5 1.75 0  17.75 1.75 0  18 1.75 0  18.25 1.75 0  18.5 1.75 0  18.75 1.75 0  19 1.75 0  19.25 1.75 0  19.5 1.75 0  19.75 1.75 0  20 1.75 0  20.25 1.75 0  20.5 1.75 0  20.75 1.75 0  21 1.75 0  21.25 1.75 0  21.5 1.75 0  21.75 1.75 0  22 1.75 0  22.25 1.75 0  22.5 1.75 0  22.75 1.75 0  23 1.75 0  23.25 1.75 0  23.5 1.75 0  23.75 1.75 0  24 1.75 0  24.25 1.75 0  24.5 1.75 0  24.75 1.75 0  25 1.75 0  0 2 0  0.25 2 0  0.5 2 0  0.75 2 0  1 2 0  1.25 2 0  1.5 2 0  1.75 2 0  2 2 0  2.25 2 0  2.5 2 0  2.75 2 0  3 2 0  3.25 2 0  3.5 2 0  3.75 2 0  4 2 0  4.25 2 0  4.5 2 0  4.75 2 0  5 2 0  5.25 2 0  5.5 2 0  5.75 2 0  6 2 0  6.25 2 0  6.5 2 0  6.75 2 0  7 2 0  7.25 2 0  7.5 2 0  7.75 2 0  8 2 0  8.25 2 0  8.5 2 0  8.75 2 0  9 2 0  9.25 2 0  9.5 2 0  9.75 2 0  10 2 0  10.25 2 0  10.5 2 0  10.75 2 0  11 2 0  11.25 2 0 
[...]
<PointData  Scalars="f_26"> 
<DataArray  type="Float64"  Name="f_26"  format="ascii">9.9995627299733458e-01  9.9995303649910772e-01  9.9994407962615683e-01  9.9992807884196344e-01  9.9990293727988777e-01  9.9986542479999496e-01  9.9981074222535038e-01  9.9973190164740122e-01  9.9961883188773493e-01  9.9945709239340652e-01  9.9922603174048585e-01  9.9889615821287003e-01  9.9842539300538347e-01  9.9775374144873785e-01  9.9679573135318233e-01  9.9542971509689049e-01  9.9348279902395098e-01  9.9070974351516905e-01  9.8676368799320091e-01  9.8115607622333090e-01  9.7320290017900568e-01  9.6195482139282396e-01  9.4611082507593802e-01  9.2392054859822770e-01  8.9309202658090314e-01  8.5074259189124923e-01  7.9346244693693468e-01  7.1759576374827261e-01  6.1985568324302509e-01  4.9832200623043382e-01  3.5366564664676486e-01  1.9013134601330359e-01  1.5611468582440075e-02  -1.5961171575244981e-01  -3.2514795619675979e-01  -4.7280789994275407e-01  -5.9793627055304055e-01  -6.9943933393495406e-01  -7.7889079441519937e-01  -8.3935301460789746e-01  -8.8437882869058604e-01  -9.1736762085640722e-01  -9.4124787766865270e-01  -9.5838304254575568e-01  -9.7060017499206963e-01  -9.7927097543005059e-01  -9.8540469486601412e-01  -9.8973353959539501e-01  -9.9278351792275799e-01  -9.9492990371477885e-01  -9.9643913080230428e-01  -9.9749971126257608e-01  -9.9824470161771661e-01  -9.9876785573587656e-01  -9.9913515420327359e-01  -9.9939299200498077e-01  -9.9957397252809588e-01  -9.9970099750827157e-01  -9.9979014904996444e-01  -9.9985271796533592e-01  -9.9989663005565321e-01  -9.9992744842083336e-01  -9.9994907751794015e-01  -9.9996425756447282e-01  -9.9997491164200381e-01  -9.9998238934839367e-01  -9.9998763781316868e-01  -9.9999132172153538e-01  -9.9999390754692419e-01  -9.9999572266334324e-01  -9.9999699682825927e-01  -9.9999789129354122e-01  -9.9999851923429983e-01  -9.9999896008507749e-01  -9.9999926960055840e-01  -9.9999948691597995e-01  -9.9999963950208515e-01  -9.9999974664255153e-01  -9.9999982187454073e-01  -9.9999987470158525e-01  -9.9999991179580372e-01  -9.9999993784172037e-01  -9.9999995612855164e-01  -9.9999996896595233e-01  -9.9999997797585416e-01  -9.9999998429733306e-01  -9.9999998873042872e-01  -9.9999999183711297e-01  -9.9999999401217565e-01  -9.9999999553299213e-01  -9.9999999659446515e-01  -9.9999999733355494e-01  -9.9999999784649907e-01  -9.9999999820089625e-01  -9.9999999844417853e-01  -9.9999999860954225e-01  -9.9999999872008094e-01  -9.9999999879162671e-01  -9.9999999883460666e-01  -9.9999999885492863e-01  -9.9999999885301938e-01  9.9995581841682257e-01  9.9995288609935506e-01  9.9994396160301124e-01  9.9992792054622304e-01  9.9990270426604411e-01  9.9986508388492079e-01  9.9981024983030342e-01  9.9973119655392961e-01  9.9961782730911453e-01  9.9945566547489884e-01  9.9922400911736065e-01  9.9889329612692990e-01  9.9842135019243272e-01  9.9774804276961460e-01  9.9678772022117013e-01  9.9541849368850022e-01  9.9346715811454767e-01  9.9068809059579110e-01  9.8673399679122076e-01  9.8111590905559010e-01  9.7314960587629484e-01  9.6188609626181876e-01  9.4602594547554220e-01  9.2382271145827843e-01  8.9299225163067641e-01  8.5066526198013759e-01  7.9345131410479242e-01  7.1771675587778261e-01  6.2018985587500397e-01  4.9894185821210707e-01  3.5459614687404906e-01  1.9131395641242896e-01  1.6901277287792664e-02  -1.5840025088174312e-01  -3.2416940815695766e-01  -4.7213464425286361e-01  -5.9755482511400815e-01  -6.9928297171756715e-01  -7.7887896124274736e-01  -8.3941732187147056e-01  -8.8447228450239512e-01  -9.1746306145953693e-01  -9.4133235055774900e-01  -9.5845219248564317e-01  -9.7065411759213827e-01  -9.7931174162088241e-01  -9.8543484350139743e-01  -9.8975550120206524e-01  -9.9279934458255203e-01  -9.9494122117376371e-01  -9.9644717818953910e-01  -9.9750540963671475e-01  -9.9824872411135190e-01  -9.9877068853869189e-01  -9.9913714556500621e-01  -9.9939438987736406e-01  -9.9957495267728436e-01  -9.9970168412437377e-01  -9.9979062966591681e-01  -9.9985305416096903e-01  -9.9989686508910958e-01  -9.9992761264429153e-01  -9.9994919220784950e-01  -9.9996433762352577e-01  -9.9997496750146420e-01  -9.9998242830539630e-01  -9.9998766496967917e-01  -9.9999134064297845e-01  -9.9999392072380089e-01  -9.9999573183454427e-01  -9.9999700320737750e-01  -9.9999789572720132e-01  -9.9999852231287256e-01  -9.9999896222006524e-01  -9.9999927107866093e-01  -9.9999948793685345e-01  -9.9999964020470222e-01  -9.9999974712359629e-01  -9.9999982220124084e-01  -9.9999987492065978e-01  -9.9999991193970095e-01  -9.9999993793296338e-01  -9.9999995618276583e-01  -9.9999996899397303e-01  -9.9999997798519380e-01  -9.9999998429320114e-01  -9.9999998871644225e-01  -9.9999999181578947e-01  -9.9999999398527539e-01  -9.9999999550175656e-01  -9.9999999655978111e-01  -9.9999999729606925e-01  -9.9999999780669746e-01  -9.9999999815915730e-01  -9.9999999840081188e-01  -9.9999999856481714e-01  -9.9999999867425216e-01  -9.9999999874498280e-01  -9.9999999878762547e-01  -9.9999999880893464e-01  -9.9999999881326085e-01  9.9995567868932300e-01  9.9995281837521399e-01  9.9994392778559971e-01  9.9992789172599983e-01  9.9990266585274634e-01  9.9986502797466015e-01  9.9981017082350865e-01  9.9973108941521693e-01  9.9961768731261269e-01  9.9945548907799009e-01  9.9922379623758084e-01  9.9889305469196166e-01  9.9842110464343348e-01  9.9774784951092688e-01  9.9678769523673671e-01  9.9541886134294000e-01  9.9346833657450684e-01  9.9069083995728024e-01  9.8673967315387290e-01  9.8112689411267884e-01  9.7317001878208287e-01  9.6192293923697725e-01  9.4609086879822102e-01  9.2393455597329721e-01  8.9318032688253235e-01  8.5097276118342136e-01  7.9393716335774167e-01  7.1845263259014569e-01  6.2124804028981040e-01  5.0037128001062581e-01  3.5639094106537067e-01  1.9338958522731398e-01  1.9098389272540463e-02  -1.5627601222305024e-01  -3.2228872910427081e-01  -4.7059939642293847e-01  -5.9638748976507039e-01  -6.9844629386717072e-01  -7.7830659987265660e-01  -8.3903912646384848e-01  -8.8422827891988887e-01  -9.1730788801549890e-01  -9.4123430755249848e-01  -9.5839024877949264e-01  -9.7061478675773016e-01  -9.7928655278413990e-01  -9.8541853308558147e-01  -9.8974480884841831e-01  -9.9279224534968225e-01  -9.9493644853203733e-01  -9.9644393189611813e-01  -9.9750317788639442e-01  -9.9824717521706741e-01  -9.9876960461934960e-01  -9.9913638159639517e-01  -9.9939384812095400e-01  -9.9957456650600218e-01  -9.9970140765117443e-01  -9.9979043100016096e-01  -9.9985291096356321e-01  -9.9989676160470420e-01  -9.9992753769582765e-01  -9.9994913782657746e-01  -9.9996429810398557e-01  -9.9997493874398535e-01  -9.9998240735519406e-01  -9.9998764969165421e-01  -9.9999132949097314e-01  -9.9999391257608650e-01  -9.9999572587604346e-01  -9.9999699884504956e-01  -9.9999789252906846e-01  -9.9999851996397204e-01  -9.9999896049055814e-01  -9.9999926980070264e-01  -9.9999948698779062e-01  -9.9999963949485182e-01  -9.9999974658734669e-01  -9.9999982179056701e-01  -9.9999987460039375e-01  -9.9999991168407998e-01  -9.9999993772311180e-01  -9.9999995600485425e-01  -9.9999996883787523e-01  -9.9999997784350492e-01  -9.9999998416052083e-01  -9.9999998858885042e-01  -9.9999999169046327e-01  -9.9999999386020955e-01  -9.9999999537555806e-01  -9.9999999643151927e-01  -9.9999999716516486e-01  -9.9999999767284165e-01  -9.9999999802225148e-01  -9.9999999826092401e-01  -9.9999999842215170e-01  -9.9999999852913601e-01  -9.9999999859787458e-01  -9.9999999863916755e-01  -9.9999999866003875e-01  -9.9999999866483336e-01  9.9995569679465712e-01  9.9995286104338132e-01  9.9994400385562854e-01  9.9992800529143044e-01  9.9990282787848650e-01  9.9986525954477024e-01  9.9981050587692044e-01  9.9973157947355462e-01  9.9961840931953772e-01  9.9945655762570618e-01  9.9922538218449952e-01  9.9889541332747678e-01  9.9842461828459506e-01  9.9775309203332541e-01  9.9679553002075105e-01  9.9543059013446700e-01  9.9348592573390548e-01  9.9071726360744061e-01  9.8677943082520603e-01  9.8118678355492128e-01  9.7326026927349962e-01  9.6205882540708276e-01  9.4629490109139502e-01  9.2423922266480063e-01  8.9363104377701319e-01  8.5163004104062068e-01  7.9487598787273284e-01  7.1975586045542828e-01  6.2299041265737509e-01  5.0259305794157993e-01  3.5906696029693830e-01  1.9640847165633646e-01  2.2269729383259756e-02  -1.5318031817669975e-01  -3.1947493544153449e-01  -4.6820382045661840e-01  -5.9446049168064008e-01  -6.9696689047856009e-01  -7.7721147846333039e-01  -8.3825009164842201e-01  -8.8367045426248436e-01  -9.1691838313322505e-01  -9.4096432354161974e-01  -9.5820378703720666e-01  -9.7048613949156382e-01  -9.7919773087857831e-01  -9.8535709903678304e-01  -9.8970221755248677e-01  -9.9276264027978800e-01  -9.9491581548228303e-01  -9.9642951487418419e-01  -9.9749307990417035e-01  -9.9824008664388186e-01  -9.9876461849382692e-01  -9.9913286788888434e-01  -9.9939136790159955e-01  -9.9957281315691837e-01  -9.9970016645554305e-01  -9.9978955126266944e-01  -9.9985228670919679e-01  -9.9989631817296332e-01  -9.9992722240194198e-01  -9.9994891343834791e-01  -9.9996413827429254e-01  -9.9997482480568201e-01  -9.9998232606761872e-01  -9.9998759165343620e-01  -9.9999128802035608e-01  -9.9999388291992541e-01  -9.9999570465026666e-01  -9.9999698363837985e-01  -9.9999788162206205e-01  -9.9999851212961410e-01  -9.9999895485260870e-01  -9.9999926573297826e-01  -9.9999948404249450e-01  -9.9999963735153408e-01  -9.9999974501653033e-01  -9.9999982062780868e-01  -9.9999987372777310e-01  -9.9999991101698327e-01  -9.9999993720078928e-01  -9.9999995558367138e-01  -9.9999996848648609e-01  -9.9999997753939895e-01  -9.9999998388755118e-01  -9.9999998833546422e-01  -9.9999999144843332e-01  -9.9999999362372505e-01  -9.9999999514057225e-01  -9.9999999619528013e-01  -9.9999999692587782e-01  -9.9999999742942502e-01  -9.9999999777416027e-01  -9.9999999800802120e-01  -9.9999999816461516e-01  -9.9999999826739250e-01  -9.9999999833255371e-01  -9.9999999837106190e-01  -9.9999999839002185e-01  -9.9999999839357689e-01  9.9995582946357620e-01  9.9995301111229196e-01  9.9994419665296519e-01  9.9992826682208924e-01  9.9990319294655039e-01  9.9986577851559066e-01  9.9981125237052970e-01  9.9973266108671488e-01  9.9961998336907587e-01  9.9945885440850735e-01  9.9922873932113720e-01  9.9890032645500770e-01  9.9843181590094199e-01  9.9776364602846046e-01  9.9681101886997647e-01  9.9545333954674153e-01  9.9351936252426321e-01  9.9076643338596104e-01  9.8685174879965420e-01  9.8129310839248385e-01  9.7341640590124967e-01  9.6228755731964799e-01  9.4662859137164534e-01  9.2472284181774744e-01  8.9432508400182376e-01  8.5261205401551210e-01  7.9623842771179965e-01  7.2159686973454273e-01  6.2539422491604779e-01  5.0559965369278914e-01  3.6263785775627388e-01  2.0040470237599789e-01  2.6460826630095732e-02  -1.4906982707254485e-01  -3.1569843843540374e-01  -4.6493666820435747e-01  -5.9177839522744569e-01  -6.9485887222369858e-01  -7.7561095153735027e-01  -8.3706650329268939e-01  -8.8281198245385106e-01  -9.1630419563679044e-01  -9.4052897172282834e-01  -9.5789703758526434e-01  -9.7027077152733510e-01  -9.7904680083257023e-01  -9.8525139829067232e-01  -9.8962818435223820e-01  -9.9271075600677061e-01  -9.9487942116172667e-01  -9.9640395910279744e-01  -9.9747511472139916e-01  -9.9822744316916123e-01  -9.9875571043175293e-01  -9.9912658494195028e-01  -9.9938693197651407e-01  -9.9956967827176946e-01  -9.9969794901477282e-01  -9.9978798143096981e-01  -9.9985117445398142e-01  -9.9989552951644800e-01  -9.9992666278926035e-01  -9.9994851607303203e-01  -9.9996385592657999e-01  -9.9997462405243698e-01  -9.9998218323728416e-01  -9.9998748996816600e-01  -9.9999121557981319e-01  -9.9999383127750352e-01  -9.9999566780676241e-01  -9.9999695733012117e-01  -9.9999786281693470e-01  -9.9999849867000501e-01  -9.9999894520225829e-01  -9.9999925879738139e-01  -9.9999947904140063e-01  -9.9999963372837752e-01  -9.9999974237405720e-01  -9.9999981868229648e-01  -9.9999987227645715e-01  -9.9999990991486798e-01  -9.9999993634413187e-01  -9.9999995489821381e-01  -9.9999996791906576e-01  -9.9999997705196664e-01  -9.9999998345290309e-01  -9.9999998793419531e-01  -9.9999999106676274e-01  -9.9999999325194178e-01  -9.9999999477192325e-01  -9.9999999582517474e-01  -9.9999999655131611e-01  -9.9999999704858666e-01  -9.9999999738610668e-01  -9.9999999761247904e-01  -9.9999999776181669e-01  -9.9999999785795624e-01  -9.9999999791738958e-01  -9.9999999795128536e-01  -9.9999999796684880e-01  -9.9999999796817529e-01  9.9995606202419207e-01  9.9995326338050394e-01  9.9994450625115472e-01  9.9992867709547673e-01  9.9990376047196494e-01  9.9986658205466949e-01  9.9981240445834263e-01  9.9973432418373231e-01  9.9962239310556311e-01  9.9946235338884593e-01  9.9923382644102887e-01  9.9890772891775359e-01  9.9844259438854299e-01  9.9777934820135250e-01  9.9683390308632591e-01  9.9548670008009421e-01  9.9356800030867065e-01  9.9083733284200715e-01  9.8695504099946596e-01  9.8144342054580769e-01  9.7363470808145336e-01  9.6260359953444463e-01  9.4708393778447353e-01  9.2537428436269076e-01  8.9524775162444015e-01  8.5390071918362476e-01  7.9800435487522070e-01  7.2395644549820126e-01  6.2844573588834474e-01  5.0938796126421126e-01  3.6711484967215652e-01  2.0540371544333857e-01  3.1706540997473207e-02  -1.4390812263568714e-01  -3.1092877651232992e-01  -4.6077766167423079e-01  -5.8833133108010827e-01  -6.9212028443539797e-01  -7.7350765953892620e-01  -8.3549280105446433e-01  -8.8165733013556491e-01  -9.1546898208836214e-01  -9.3993088396752922e-01  -9.5747171275436826e-01  -9.6996969398128530e-01  -9.7883429333723726e-01  -9.8510165962068663e-01  -9.8952276367394087e-01  -9.9263655620801916e-01  -9.9482718942303539e-01  -9.9636717741447745e-01  -9.9744919899206408e-01  -9.9820917182559354e-01  -9.9874281979894541e-01  -9.9911748406079648e-01  -9.9938050215756724e-01  -9.9956513241401834e-01  -9.9969473292883471e-01  -9.9978570462658423e-01  -9.9984956157696958e-01  -9.9989438625459959e-01  -9.9992585191910577e-01  -9.9994794061794801e-01  -9.9996344730530207e-01  -9.9997433373243572e-01  -9.9998197685176438e-01  -9.9998734316627202e-01  -9.9999111109720706e-01  -9.9999375686693248e-01  -9.9999561477513388e-01  -9.9999691950364322e-01  -9.9999783580859991e-01  -9.9999847936076758e-01  -9.9999893137334883e-01  -9.9999924886958347e-01  -9.9999947189007354e-01  -9.9999962855214874e-01  -9.9999973860156688e-01  -9.9999981590593390e-01  -9.9999987020525472e-01  -9.9999990834099906e-01  -9.9999993511907481e-01  -9.9999995391578511e-01  -9.9999996710333972e-01  -9.9999997634866955e-01  -9.9999998282328195e-01  -9.9999998735064743e-01  -9.9999999050971811e-01  -9.9999999270763906e-01  -9.9999999423082120e-01  -9.9999999528081585e-01  -9.9999999599951195e-01  -9.9999999648683169e-01  -9.9999999681315410e-01  -9.9999999702803133e-01  -9.9999999716629651e-01  -9.9999999725233246e-01  -9.9999999730303979e-01  -9.9999999732987732e-01  -9.9999999734022926e-01  -9.9999999733826239e-01  9.9995638783400376e-01  9.9995361360180468e-01  9.9994493045899580e-01  9.9992923423863667e-01  9.9990452746142666e-01  9.9986766491915513e-01  9.9981395343466428e-01  9.9973655489440727e-01  9.9962561688237495e-01  9.9946702107688701e-01  9.9924059189283398e-01  9.9891754112373410e-01  9.9845683113520967e-01  9.9780000976860972e-01  9.9686389238630113e-01  9.9553022649916756e-01  9.9363115900337751e-01  9.9092892962105072e-01  9.8708775422286665e-01  9.8163541171795543e-01  9.7391180164284286e-01  9.6300212698631538e-01  9.4765423714959141e-01  9.2618458557126160e-01  8.9638764748759403e-01  8.5548250121659375e-01  8.0015918840760203e-01  7.2682110389825638e-01  6.3213572420307684e-01  5.1395663039068518e-01  3.7250730710370938e-01  2.1142626074176529e-01  3.8036652551512097e-02  -1.3766118738541766e-01  -3.0513312353086247e-01  -4.5569926526561999e-01  -5.8409883036660160e-01  -6.8873741943742917e-01  -7.7089318866371037e-01  -8.3352414116069184e-01  -8.8020378170103497e-01  -9.1441116621755070e-01  -9.3916904090055042e-01  -9.5692705177622550e-01  -9.6958227368669869e-01  -9.7855965603249362e-01  -9.8490739977272379e-01  -9.8938554004552148e-01  -9.9253969202272685e-01  -9.9475883412209232e-01  -9.9631893997357213e-01  -9.9741515138607928e-01  -9.9818513168156719e-01  -9.9872583841555507e-01  -9.9910548305423341e-01  -9.9937201652540986e-01  -9.9955912926116197e-01  -9.9969048374306202e-01  -9.9978269534455189e-01  -9.9984742927311643e-01  -9.9989287456807741e-01  -9.9992477966393101e-01  -9.9994717966804847e-01  -9.9996290700624435e-01  -9.9997394990768518e-01  -9.9998170404487852e-01  -9.9998714916339881e-01  -9.9999097305739826e-01  -9.9999365858677280e-01  -9.9999554475410679e-01  -9.9999686957508238e-01  -9.9999780017036166e-01  -9.9999845388856190e-01  -9.9999891313405753e-01  -9.9999923577615213e-01  -9.9999946245667504e-01  -9.9999962172040491e-01  -9.9999973361714900e-01  -9.9999981223089940e-01  -9.9999986745574487e-01  -9.9999990624294344e-01  -9.9999993347668603e-01  -9.9999995258914331e-01  -9.9999996599243857e-01  -9.9999997538205854e-01  -9.9999998194997697e-01  -9.9999998653436828e-01  -9.9999998972478132e-01  -9.9999999193602906e-01  -9.9999999346009960e-01  -9.9999999450262655e-01  -9.9999999520850991e-01  -9.9999999567991205e-01  -9.9999999598889389e-01  -9.9999999618628077e-01  -9.9999999630787595e-01  -9.9999999637880077e-01  -9.9999999641651249e-01  -9.9999999643287540e-01  -9.9999999643554793e-01  -9.9999999642885606e-01  9.9995680269803755e-01  9.9995405817510152e-01  9.9994546620740854e-01  9.9992993487985438e-01  9.9990548920456535e-01  9.9986901991879384e-01  9.9981588820600142e-01  9.9973933622077671e-01  9.9962962882522544e-01  9.9947281823777656e-01  9.9924897630211051e-01  9.9892967333575811e-01  9.9847439068828625e-01  9.9782542663773854e-01  9.9690068007087296e-01  9.9558345969203221e-01  9.9370815506598920e-01  9.9104021355261851e-01  9.8724841026596466e-01  9.8186694665220176e-01  9.7424465355731671e-01  9.6347892352479914e-01  9.4833378935591217e-01  9.2714631112949231e-01  8.9773552205765617e-01  8.5734660214864500e-01  8.0269141713115388e-01  7.3018022017060380e-01  6.3645685461449242e-01  5.1930452864588861e-01  3.7882298379258683e-01  2.1849037313877334e-01  4.5478692699563353e-02  -1.3029504764093752e-01  -2.9827543460479977e-01  -4.4966754881933013e-01  -5.7905189480542474e-01  -6.8468730996936789e-01  -7.6775034854355717e-01  -8.3114813481729732e-01  -8.7844258965100819e-01  -9.1312460516195604e-01  -9.3823910298917912e-01  -9.5625994958319216e-01  -9.6910625524289928e-01  -9.7822122815791901e-01  -9.8466738321471647e-01  -9.8921558841591917e-01  -9.9241946886678534e-01  -9.9467383361670436e-01  -9.9625885564635874e-01  -9.9737267941231100e-01  -9.9815510471602986e-01  -9.9870460432274910e-01  -9.9909046201264495e-01  -9.9936138658318241e-01  -9.9955160368968843e-01  -9.9968515365967703e-01  -9.9977891858530987e-01  -9.9984475196700018e-01  -9.9989097580163633e-01  -9.9992343243741855e-01  -9.9994622334182592e-01  -9.9996222785048128e-01  -9.9997346736737480e-01  -9.9998136103687763e-01  -9.9998690521890721e-01  -9.9999079947326996e-01  -9.9999353499563393e-01  -9.9999545669699907e-01  -9.9999680678281622e-01  -9.9999775534610646e-01  -9.9999842184510046e-01  -9.9999889018211185e-01  -9.9999921929052593e-01  -9.9999945056838946e-01  -9.9999961309814811e-01  -9.9999972731206632e-01  -9.9999980756632256e-01  -9.9999986394882157e-01  -9.9999990354891688e-01  -9.9999993134926735e-01  -9.9999995085231874e-01  -9.9999996452040785e-01  -9.9999997408495367e-01  -9.9999998076369534e-01  -9.9999998541333091e-01  -9.9999998863677420e-01  -9.9999999085852442e-01  -9.9999999237763137e-01  -9.9999999340491408e-01  -9.9999999408911278e-01  -9.9999999453526189e-01  -9.9999999481759150e-01  -9.9999999498858083e-01  -9.9999999508530191e-01  -9.9999999513385118e-01  -9.9999999515242799e-01  -9.9999999515344762e-01  -9.9999999514495519e-01  -9.9