<?xml version="1.0"?>
<VTKFile type="UnstructuredGrid"  version="0.1"  >
<UnstructuredGrid>
<Piece  NumberOfPoints="10201" NumberOfCells="20000">
<Points>
<DataArray  type="Float64"  NumberOfComponents="3"  format="ascii">0 0 0  0.25 0 0  0.5 0 0  0.75 0 0  1 0 0  1.25 0 0  1.5 0 0  1.75 0 0  2 0 0  2.25 0 0  2.5 0 0  2.75 0 0  3 0 0  3.25 0 0  3.5 0 0  3.75 0 0  4 0 0  4.25 0 0  4.5 0 0  4.75 0 0  5 0 0  5.25 0 0  5.5 0 0  5.75 0 0  6 0 0  6.25 0 0  6.5 0 0  6.75 0 0  7 0 0  7.25 0 0  7.5 0 0  7.75 0 0  8 0 0  8.25 0 0  8.5 0 0  8.75 0 0  9 0 0  9.25 0 0  9.5 0 0  9.75 0 0  10 0 0  10.25 0 0  10.5 0 0  10.75 0 0  11 0 0  11.25 0 0  11.5 0 0  11.75 0 0  12 0 0  12.25 0 0  12.5 0 0  12.75 0 0  13 0 0  13.25 0 0  13.5 0 0  13.75 0 0  14 0 0  14.25 0 0  14.5 0 0  14.75 0 0  15 0 0  15.25 0 0  15.5 0 0  15.75 0 0  16 0 0  16.25 0 0  16.5 0 0  16.75 0 0  17 0 0  17.25 0 0  17.5 0 0  17.75 0 0  18 0 0  18.25 0 0  18.5 0 0  18.75 0 0  19 0 0  19.25 0 0  19.5 0 0  19.75 0 0  20 0 0  20.25 0 0  20.5 0 0  20.75 0 0  21 0 0  21.25 0 0  21.5 0 0  21.75 0 0  22 0 0  22.25 0 0  22.5 0 0  22.75 0 0  23 0 0  23.25 0 0  23.5 0 0  23.75 0 0  24 0 0  24.25 0 0  24.5 0 0  24.75 0 0  25 0 0  0 0.25 0  0.25 0.25 0  0.5 0.25 0  0.75 0.25 0  1 0.25 0  1.25 0.25 0  1.5 0.25 0  1.75 0.25 0  2 0.25 0  2.25 0.25 0  2.5 0.25 0  2.75 0.25 0  3 0.25 0  3.25 0.25 0  3.5 0.25 0  3.75 0.25 0  4 0.25 0  4.25 0.25 0  4.5 0.25 0  4.75 0.25 0  5 0.25 0  5.25 0.25 0  5.5 0.25 0  5.75 0.25 0  6 0.25 0  6.25 0.25 0  6.5 0.25 0  6.75 0.25 0  7 0.25 0  7.25 0.25 0  7.5 0.25 0  7.75 0.25 0  8 0.25 0  8.25 0.25 0  8.5 0.25 0  8.75 0.25 0  9 0.25 0  9.25 0.25 0  9.5 0.25 0  9.75 0.25 0  10 0.25 0  10.25 0.25 0  10.5 0.25 0  10.75 0.25 0  11 0.25 0  11.25 0.25 0  11.5 0.25 0  11.75 0.25 0  12 0.25 0  12.25 0.25 0  12.5 0.25 0  12.75 0.25 0  13 0.25 0  13.25 0.25 0  13.5 0.25 0  13.75 0.25 0  14 0.25 0  14.25 0.25 0  14.5 0.25 0  14.75 0.25 0  15 0.25 0  15.25 0.25 0  15.5 0.25 0  15.75 0.25 0  16 0.25 0  16.25 0.25 0  16.5 0.25 0  16.75 0.25 0  17 0.25 0  17.25 0.25 0  17.5 0.25 0  17.75 0.25 0  18 0.25 0  18.25 0.25 0  18.5 0.25 0  18.75 0.25 0  19 0.25 0  19.25 0.25 0  19.5 0.25 0  19.75 0.25 0  20 0.25 0  20.25 0.25 0  20.5 0.25 0  20.75 0.25 0  21 0.25 0  21.25 0.25 0  21.5 0.25 0  21.75 0.25 0  22 0.25 0  22.25 0.25 0  22.5 0.25 0  22.75 0.25 0  23 0.25 0  23.25 0.25 0  23.5 0.25 0  23.75 0.25 0  24 0.25 0  24.25 0.25 0  24.5 0.25 0  24.75 0.25 0  25 0.25 0  0 0.5 0  0.25 0.5 0  0.5 0.5 0  0.75 0.5 0  1 0.5 0  1.25 0.5 0  1.5 0.5 0  1.75 0.5 0  2 0.5 0  2.25 0.5 0  2.5 0.5 0  2.75 0.5 0  3 0.5 0  3.25 0.5 0  3.5 0.5 0  3.75 0.5 0  4 0.5 0  4.25 0.5 0  4.5 0.5 0  4.75 0.5 0  5 0.5 0  5.25 0.5 0  5.5 0.5 0  5.75 0.5 0  6 0.5 0  6.25 0.5 0  6.5 0.5 0  6.75 0.5 0  7 0.5 0  7.25 0.5 0  7.5 0.5 0  7.75 0.5 0  8 0.5 0  8.25 0.5 0  8.5 0.5 0  8.75 0.5 0  9 0.5 0  9.25 0.5 0  9.5 0.5 0  9.75 0.5 0  10 0.5 0  10.25 0.5 0  10.5 0.5 0  10.75 0.5 0  11 0.5 0  11.25 0.5 0  11.5 0.5 0  11.75 0.5 0  12 0.5 0  12.25 0.5 0  12.5 0.5 0  12.75 0.5 0  13 0.5 0  13.25 0.5 0  13.5 0.5 0  13.75 0.5 0  14 0.5 0  14.25 0.5 0  14.5 0.5 0  14.75 0.5 0  15 0.5 0  15.25 0.5 0  15.5 0.5 0  15.75 0.5 0  16 0.5 0  16.25 0.5 0  16.5 0.5 0  16.75 0.5 0  17 0.5 0  17.25 0.5 0  17.5 0.5 0  17.75 0.5 0  18 0.5 0  18.25 0.5 0  18.5 0.5 0  18.75 0.5 0  19 0.5 0  19.25 0.5 0  19.5 0.5 0  19.75 0.5 0  20 0.5 0  20.25 0.5 0  20.5 0.5 0  20.75 0.5 0  21 0.5 0  21.25 0.5 0  21.5 0.5 0  21.75 0.5 0  22 0.5 0  22.25 0.5 0  22.5 0.5 0  22.75 0.5 0  23 0.5 0  23.25 0.5 0  23.5 0.5 0  23.75 0.5 0  24 0.5 0  24.25 0.5 0  24.5 0.5 0  24.75 0.5 0  25 0.5 0  0 0.75 0  0.25 0.75 0  0.5 0.75 0  0.75 0.75 0  1 0.75 0  1.25 0.75 0  1.5 0.75 0  1.75 0.75 0  2 0.75 0  2.25 0.75 0  2.5 0.75 0  2.75 0.75 0  3 0.75 0  3.25 0.75 0  3.5 0.75 0  3.75 0.75 0  4 0.75 0  4.25 0.75 0  4.5 0.75 0  4.75 0.75 0  5 0.75 0  5.25 0.75 0  5.5 0.75 0  5.75 0.75 0  6 0.75 0  6.25 0.75 0  6.5 0.75 0  6.75 0.75 0  7 0.75 0  7.25 0.75 0  7.5 0.75 0  7.75 0.75 0  8 0.75 0  8.25 0.75 0  8.5 0.75 0  8.75 0.75 0  9 0.75 0  9.25 0.75 0  9.5 0.75 0  9.75 0.75 0  10 0.75 0  10.25 0.75 0  10.5 0.75 0  10.75 0.75 0  11 0.75 0  11.25 0.75 0  11.5 0.75 0  11.75 0.75 0  12 0.75 0  12.25 0.75 0  12.5 0.75 0  12.75 0.75 0  13 0.75 0  13.25 0.75 0  13.5 0.75 0  13.75 0.75 0  14 0.75 0  14.25 0.75 0  14.5 0.75 0  14.75 0.75 0  15 0.75 0  15.25 0.75 0  15.5 0.75 0  15.75 0.75 0  16 0.75 0  16.25 0.75 0  16.5 0.75 0  16.75 0.75 0  17 0.75 0  17.25 0.75 0  17.5 0.75 0  17.75 0.75 0  18 0.75 0  18.25 0.75 0  18.5 0.75 0  18.75 0.75 0  19 0.75 0  19.25 0.75 0  19.5 0.75 0  19.75 0.75 0  20 0.75 0  20.25 0.75 0  20.5 0.75 0  20.75 0.75 0  21 0.75 0  21.25 0.75 0  21.5 0.75 0  21.75 0.75 0  22 0.75 0  22.25 0.75 0  22.5 0.75 0  22.75 0.75 0  23 0.75 0  23.25 0.75 0  23.5 0.75 0  23.75 0.75 0  24 0.75 0  24.25 0.75 0  24.5 0.75 0  24.75 0.75 0  25 0.75 0  0 1 0  0.25 1 0  0.5 1 0  0.75 1 0  1 1 0  1.25 1 0  1.5 1 0  1.75 1 0  2 1 0  2.25 1 0  2.5 1 0  2.75 1 0  3 1 0  3.25 1 0  3.5 1 0  3.75 1 0  4 1 0  4.25 1 0  4.5 1 0  4.75 1 0  5 1 0  5.25 1 0  5.5 1 0  5.75 1 0  6 1 0  6.25 1 0  6.5 1 0  6.75 1 0  7 1 0  7.25 1 0  7.5 1 0  7.75 1 0  8 1 0  8.25 1 0  8.5 1 0  8.75 1 0  9 1 0  9.25 1 0  9.5 1 0  9.75 1 0  10 1 0  10.25 1 0  10.5 1 0  10.75 1 0  11 1 0  11.25 1 0  11.5 1 0  11.75 1 0  12 1 0  12.25 1 0  12.5 1 0  12.75 1 0  13 1 0  13.25 1 0  13.5 1 0  13.75 1 0  14 1 0  14.25 1 0  14.5 1 0  14.75 1 0  15 1 0  15.25 1 0  15.5 1 0  15.75 1 0  16 1 0  16.25 1 0  16.5 1 0  16.75 1 0  17 1 0  17.25 1 0  17.5 1 0  17.75 1 0  18 1 0  18.25 1 0  18.5 1 0  18.75 1 0  19 1 0  19.25 1 0  19.5 1 0  19.75 1 0  20 1 0  20.25 1 0  20.5 1 0  20.75 1 0  21 1 0  21.25 1 0  21.5 1 0  21.75 1 0  22 1 0  22.25 1 0  22.5 1 0  22.75 1 0  23 1 0  23.25 1 0  23.5 1 0  23.75 1 0  24 1 0  24.25 1 0  24.5 1 0  24.75 1 0  25 1 0  0 1.25 0  0.25 1.25 0  0.5 1.25 0  0.75 1.25 0  1 1.25 0  1.25 1.25 0  1.5 1.25 0  1.75 1.25 0  2 1.25 0  2.25 1.25 0  2.5 1.25 0  2.75 1.25 0  3 1.25 0  3.25 1.25 0  3.5 1.25 0  3.75 1.25 0  4 1.25 0  4.25 1.25 0  4.5 1.25 0  4.75 1.25 0  5 1.25 0  5.25 1.25 0  5.5 1.25 0  5.75 1.25 0  6 1.25 0  6.25 1.25 0  6.5 1.25 0  6.75 1.25 0  7 1.25 0  7.25 1.25 0  7.5 1.25 0  7.75 1.25 0  8 1.25 0  8.25 1.25 0  8.5 1.25 0  8.75 1.25 0  9 1.25 0  9.25 1.25 0  9.5 1.25 0  9.75 1.25 0  10 1.25 0  10.25 1.25 0  10.5 1.25 0  10.75 1.25 0  11 1.25 0  11.25 1.25 0  11.5 1.25 0  11.75 1.25 0  12 1.25 0  12.25 1.25 0  12.5 1.25 0  12.75 1.25 0  13 1.25 0  13.25 1.25 0  13.5 1.25 0  13.75 1.25 0  14 1.25 0  14.25 1.25 0  14.5 1.25 0  14.75 1.25 0  15 1.25 0  15.25 1.25 0  15.5 1.25 0  15.75 1.25 0  16 1.25 0  16.25 1.25 0  16.5 1.25 0  16.75 1.25 0  17 1.25 0  17.25 1.25 0  17.5 1.25 0  17.75 1.25 0  18 1.25 0  18.25 1.25 0  18.5 1.25 0  18.75 1.25 0  19 1.25 0  19.25 1.25 0  19.5 1.25 0  19.75 1.25 0  20 1.25 0  20.25 1.25 0  20.5 1.25 0  20.75 1.25 0  21 1.25 0  21.25 1.25 0  21.5 1.25 0  21.75 1.25 0  22 1.25 0  22.25 1.25 0  22.5 1.25 0  22.75 1.25 0  23 1.25 0  23.25 1.25 0  23.5 1.25 0  23.75 1.25 0  24 1.25 0  24.25 1.25 0  24.5 1.25 0  24.75 1.25 0  25 1.25 0  0 1.5 0  0.25 1.5 0  0.5 1.5 0  0.75 1.5 0  1 1.5 0  1.25 1.5 0  1.5 1.5 0  1.75 1.5 0  2 1.5 0  2.25 1.5 0  2.5 1.5 0  2.75 1.5 0  3 1.5 0  3.25 1.5 0  3.5 1.5 0  3.75 1.5 0  4 1.5 0  4.25 1.5 0  4.5 1.5 0  4.75 1.5 0  5 1.5 0  5.25 1.5 0  5.5 1.5 0  5.75 1.5 0  6 1.5 0  6.25 1.5 0  6.5 1.5 0  6.75 1.5 0  7 1.5 0  7.25 1.5 0  7.5 1.5 0  7.75 1.5 0  8 1.5 0  8.25 1.5 0  8.5 1.5 0  8.75 1.5 0  9 1.5 0  9.25 1.5 0  9.5 1.5 0  9.75 1.5 0  10 1.5 0  10.25 1.5 0  10.5 1.5 0  10.75 1.5 0  11 1.5 0  11.25 1.5 0  11.5 1.5 0  11.75 1.5 0  12 1.5 0  12.25 1.5 0  12.5 1.5 0  12.75 1.5 0  13 1.5 0  13.25 1.5 0  13.5 1.5 0  13.75 1.5 0  14 1.5 0  14.25 1.5 0  14.5 1.5 0  14.75 1.5 0  15 1.5 0  15.25 1.5 0  15.5 1.5 0  15.75 1.5 0  16 1.5 0  16.25 1.5 0  16.5 1.5 0  16.75 1.5 0  17 1.5 0  17.25 1.5 0  17.5 1.5 0  17.75 1.5 0  18 1.5 0  18.25 1.5 0  18.5 1.5 0  18.75 1.5 0  19 1.5 0  19.25 1.5 0  19.5 1.5 0  19.75 1.5 0  20 1.5 0  20.25 1.5 0  20.5 1.5 0  20.75 1.5 0  21 1.5 0  21.25 1.5 0  21.5 1.5 0  21.75 1.5 0  22 1.5 0  22.25 1.5 0  22.5 1.5 0  22.75 1.5 0  23 1.5 0  23.25 1.5 0  23.5 1.5 0  23.75 1.5 0  24 1.5 0  24.25 1.5 0  24.5 1.5 0  24.75 1.5 0  25 1.5 0  0 1.75 0  0.25 1.75 0  0.5 1.75 0  0.75 1.75 0  1 1.75 0  1.25 1.75 0  1.5 1.75 0  1.75 1.75 0  2 1.75 0  2.25 1.75 0  2.5 1.75 0  2.75 1.75 0  3 1.75 0  3.25 1.75 0  3.5 1.75 0  3.75 1.75 0  4 1.75 0  4.25 1.75 0  4.5 1.75 0  4.75 1.75 0  5 1.75 0  5.25 1.75 0  5.5 1.75 0  5.75 1.75 0  6 1.75 0  6.25 1.75 0  6.5 1.75 0  6.75 1.75 0  7 1.75 0  7.25 1.75 0  7.5 1.75 0  7.75 1.75 0  8 1.75 0  8.25 1.75 0  8.5 1.75 0  8.75 1.75 0  9 1.75 0  9.25 1.75 0  9.5 1.75 0  9.75 1.75 0  10 1.75 0  10.25 1.75 0  10.5 1.75 0  10.75 1.75 0  11 1.75 0  11.25 1.75 0  11.5 1.75 0  11.75 1.75 0  12 1.75 0  12.25 1.75 0  12.5 1.75 0  12.75 1.75 0  13 1.75 0  13.25 1.75 0  13.5 1.75 0  13.75 1.75 0  14 1.75 0  14.25 1.75 0  14.5 1.75 0  14.75 1.75 0  15 1.75 0  15.25 1.75 0  15.5 1.75 0  15.75 1.75 0  16 1.75 0  16.25 1.75 0  16.5 1.75 0  16.75 1.75 0  17 1.75 0  17.25 1.75 0  17.5 1.75 0  17.75 1.75 0  18 1.75 0  18.25 1.75 0  18.5 1.75 0  18.75 1.75 0  19 1.75 0  19.25 1.75 0  19.5 1.75 0  19.75 1.75 0  20 1.75 0  20.25 1.75 0  20.5 1.75 0  20.75 1.75 0  21 1.75 0  21.25 1.75 0  21.5 1.75 0  21.75 1.75 0  22 1.75 0  22.25 1.75 0  22.5 1.75 0  22.75 1.75 0  23 1.75 0  23.25 1.75 0  23.5 1.75 0  23.75 1.75 0  24 1.75 0  24.25 1.75 0  24.5 1.75 0  24.75 1.75 0  25 1.75 0  0 2 0  0.25 2 0  0.5 2 0  0.75 2 0  1 2 0  1.25 2 0  1.5 2 0  1.75 2 0  2 2 0  2.25 2 0  2.5 2 0  2.75 2 0  3 2 0  3.25 2 0  3.5 2 0  3.75 2 0  4 2 0  4.25 2 0  4.5 2 0  4.75 2 0  5 2 0  5.25 2 0  5.5 2 0  5.75 2 0  6 2 0  6.25 2 0  6.5 2 0  6.75 2 0  7 2 0  7.25 2 0  7.5 2 0  7.75 2 0  8 2 0  8.25 2 0  8.5 2 0  8.75 2 0  9 2 0  9.25 2 0  9.5 2 0  9.75 2 0  10 2 0  10.25 2 0  10.5 2 0  10.75 2 0  11 2 0  11.25 2 0 
[...]
<PointData  Scalars="f_26"> 
<DataArray  type="Float64"  Name="f_26"  format="ascii">9.9995656215157158e-01  9.9995334740679653e-01  9.9994445058639114e-01  9.9992855714658047e-01  9.9990358445234717e-01  9.9986632430200051e-01  9.9981201014965648e-01  9.9973370165894848e-01  9.9962139630002189e-01  9.9946075206738882e-01  9.9923125861264606e-01  9.9890362583891745e-01  9.9843606272465568e-01  9.9776898486099164e-01  9.9681750403442948e-01  9.9546080217050725e-01  9.9352716059569168e-01  9.9077299705470045e-01  9.8685377473648217e-01  9.8128416709346622e-01  9.7338459747966033e-01  9.6221169255966577e-01  9.4647223887854171e-01  9.2442562903501080e-01  8.9379123285354578e-01  8.5169791428220343e-01  7.9474450160503884e-01  7.1927546550084220e-01  6.2198848018483155e-01  5.0092516239036866e-01  3.5669446905258673e-01  1.9346637042824136e-01  1.9069233787196535e-02  -1.5624188453160037e-01  -3.2205513815485615e-01  -4.7012115563838786e-01  -5.9571122438048463e-01  -6.9766841080688313e-01  -7.7752540616048194e-01  -8.3832594189083831e-01  -8.8362054090951847e-01  -9.1681549494762626e-01  -9.4084992960315628e-01  -9.5809832355538238e-01  -9.7039754185511073e-01  -9.7912730475568654e-01  -9.8530310110776098e-01  -9.8966183441105349e-01  -9.9273297452893416e-01  -9.9489430914896104e-01  -9.9641407934507387e-01  -9.9748208741777478e-01  -9.9823230653862560e-01  -9.9875913961640317e-01  -9.9912902571358209e-01  -9.9938868314862950e-01  -9.9957094307649808e-01  -9.9969886755625537e-01  -9.9978865148301288e-01  -9.9985166499171096e-01  -9.9989588965685139e-01  -9.9992692778822057e-01  -9.9994871140635289e-01  -9.9996400010459219e-01  -9.9997473058488984e-01  -9.9998226201989271e-01  -9.9998754827024017e-01  -9.9999125875338135e-01  -9.9999386326989681e-01  -9.9999569153319467e-01  -9.9999697494573558e-01  -9.9999787591617117e-01  -9.9999850843312821e-01  -9.9999895250329462e-01  -9.9999926428376640e-01  -9.9999948319282717e-01  -9.9999963690031646e-01  -9.9999974482996234e-01  -9.9999982061744508e-01  -9.9999987383560118e-01  -9.9999991120530196e-01  -9.9999993744536708e-01  -9.9999995586913659e-01  -9.9999996880323361e-01  -9.9999997788152351e-01  -9.9999998425147363e-01  -9.9999998871902362e-01  -9.9999999185029165e-01  -9.9999999404298057e-01  -9.9999999557651131e-01  -9.9999999664722172e-01  -9.9999999739307821e-01  -9.9999999791102268e-01  -9.9999999826914576e-01  -9.9999999851522292e-01  -9.9999999868268885e-01  -9.9999999879480195e-01  -9.9999999886750868e-01  -9.9999999891131752e-01  -9.9999999893220615e-01  -9.9999999893071378e-01  9.9995611118184047e-01  9.9995319856595477e-01  9.9994433400461957e-01  9.9992840075526224e-01  9.9990335414914244e-01  9.9986598727706677e-01  9.9981152332655887e-01  9.9973300452656100e-01  9.9962040307526145e-01  9.9945934131937886e-01  9.9922925899249115e-01  9.9890079643369267e-01  9.9843206626968284e-01  9.9776335180745723e-01  9.9680958554805332e-01  9.9544971105842062e-01  9.9351170197584060e-01  9.9075159731035489e-01  9.8682443158706379e-01  9.8124447158853767e-01  9.7333192948293124e-01  9.6214377524290207e-01  9.4638835811638411e-01  9.2432895159551365e-01  8.9369267827952470e-01  8.5162166870783862e-01  7.9473403365242701e-01  7.1939643384403751e-01  6.2232192093103955e-01  5.0154411666591969e-01  3.5762514949922730e-01  1.9465182033556228e-01  2.0365583381184823e-02  -1.5502046934338590e-01  -3.2106483592395563e-01  -4.6943640358313621e-01  -5.9532009623681448e-01  -6.9750481396190034e-01  -7.7750865962413562e-01  -8.3838715453929313e-01  -8.8371215938022574e-01  -9.1690989380707577e-01  -9.4093383272530529e-01  -9.5816717055525169e-01  -9.7045132693203273e-01  -9.7916799044051017e-01  -9.8533320910410949e-01  -9.8968377563068710e-01  -9.9274879093132529e-01  -9.9490562135728844e-01  -9.9642212394044227e-01  -9.9748778421152329e-01  -9.9823632806111839e-01  -9.9876197176925829e-01  -9.9913101660861359e-01  -9.9939008067004653e-01  -9.9957192295539299e-01  -9.9969955396254140e-01  -9.9978913193637697e-01  -9.9985200106223238e-01  -9.9989612459496002e-01  -9.9992709193980389e-01  -9.9994882604270352e-01  -9.9996408012420879e-01  -9.9997478641567106e-01  -9.9998230095631302e-01  -9.9998757541219285e-01  -9.9999127766469986e-01  -9.9999387643987603e-01  -9.9999570069982313e-01  -9.9999698132193926e-01  -9.9999788034808756e-01  -9.9999851151077668e-01  -9.9999895463792710e-01  -9.9999926576190667e-01  -9.9999948421400975e-01  -9.9999963760343102e-01  -9.9999974531163782e-01  -9.9999982094487339e-01  -9.9999987405547919e-01  -9.9999991135006461e-01  -9.9999993753753014e-01  -9.9999995592432211e-01  -9.9999996883227560e-01  -9.9999997789193429e-01  -9.9999998424846370e-01  -9.9999998870621043e-01  -9.9999999183019306e-01  -9.9999999401735695e-01  -9.9999999554660335e-01  -9.9999999661391514e-01  -9.9999999735701806e-01  -9.9999999787269189e-01  -9.9999999822892005e-01  -9.9999999847340815e-01  -9.9999999863954947e-01  -9.9999999875058776e-01  -9.9999999882250090e-01  -9.9999999886598101e-01  -9.9999999888782942e-01  -9.9999999889240432e-01  9.9995597387424506e-01  9.9995313286842247e-01  9.9994430228179831e-01  9.9992837453535222e-01  9.9990331925215137e-01  9.9986593627441955e-01  9.9981145124358051e-01  9.9973290719012819e-01  9.9962027696772959e-01  9.9945918459762584e-01  9.9922907396369443e-01  9.9890059437787804e-01  9.9843187631373620e-01  9.9776323687214186e-01  9.9680967061830206e-01  9.9545023281931111e-01  9.9351309525430542e-01  9.9075464436619953e-01  9.8683051736301941e-01  9.8125601421206232e-01  9.7335309231608336e-01  9.6218161133532354e-01  9.4645457229749663e-01  9.2444243909357293e-01  8.9388280191016922e-01  8.5193168584883150e-01  7.9522298779098266e-01  7.2013626309601964e-01  6.2338543866590601e-01  5.0298114866703203e-01  3.5943098365680293e-01  1.9674289368300196e-01  2.2582692615346837e-02  -1.5287278426165493e-01  -3.1915939997939147e-01  -4.6787747970843285e-01  -5.9413199646077797e-01  -6.9665117326589021e-01  -7.7692318157734097e-01  -8.3799921563215096e-01  -8.8346111317515197e-01  -9.1674972213831352e-01  -9.4083227794315027e-01  -9.5810277228030893e-01  -9.7041028366545035e-01  -9.7914160675679118e-01  -9.8531606397670524e-01  -9.8967249917950106e-01  -9.9274128225092717e-01  -9.9490056122357440e-01  -9.9641867549589824e-01  -9.9748541014870251e-01  -9.9823467888541928e-01  -9.9876081713511367e-01  -9.9913020274863062e-01  -9.9938950370171853e-01  -9.9957151192777438e-01  -9.9969925994203201e-01  -9.9978892088380056e-01  -9.9985184912223124e-01  -9.9989601494160130e-01  -9.9992701263987893e-01  -9.9994876859329740e-01  -9.9996403844248793e-01  -9.9997475613537157e-01  -9.9998227893434166e-01  -9.9998755938046757e-01  -9.9999126598317933e-01  -9.9999386792057543e-01  -9.9999569448092751e-01  -9.9999697677745603e-01  -9.9999787702282028e-01  -9.9999850907341326e-01  -9.9999895284712526e-01  -9.9999926444173470e-01  -9.9999948323613475e-01  -9.9999963687418547e-01  -9.9999974476261799e-01  -9.9999982052610048e-01  -9.9999987373041976e-01  -9.9999991109200381e-01  -9.9999993732692860e-01  -9.9999995574688905e-01  -9.9999996867756424e-01  -9.9999997775231730e-01  -9.9999998411838553e-01  -9.9999998858164307e-01  -9.9999999170823750e-01  -9.9999999389595329e-01  -9.9999999542431861e-01  -9.9999999648978777e-01  -9.9999999723044419e-01  -9.9999999774334170e-01  -9.9999999809667584e-01  -9.9999999833831965e-01  -9.9999999850180310e-01  -9.9999999861049138e-01  -9.9999999868049261e-01  -9.9999999872267875e-01  -9.9999999874411483e-01  -9.9999999874915524e-01  9.9995599426740001e-01  9.9995317781778437e-01  9.9994438089490478e-01  9.9992849127121364e-01  9.9990348550923813e-01  9.9986617368197572e-01  9.9981179446783897e-01  9.9973340875395844e-01  9.9962101521144087e-01  9.9946027607023036e-01  9.9923069226648331e-01  9.9890299863919219e-01  9.9843545420897717e-01  9.9776856972795558e-01  9.9681763212639141e-01  9.9546213891004920e-01  9.9353093165900264e-01  9.9078141143425213e-01  9.8687074978618350e-01  9.8131655639386350e-01  9.7344423486064557e-01  9.6231870906545047e-01  9.4666024096649459e-01  9.2474930810207279e-01  8.9433648387412967e-01  8.5259298245364956e-01  7.9616732207645147e-01  7.2144716847552059e-01  6.2513863083029364e-01  5.0521812635209273e-01  3.6212782105103736e-01  1.9978892257185046e-01  2.5787059838621534e-02  -1.4974003591925186e-01  -3.1630741441451993e-01  -4.6544560482436348e-01  -5.9217289981419241e-01  -6.9514505145381933e-01  -7.7580686699217349e-01  -8.3719397784846439e-01  -8.8289123136424341e-01  -9.1635141573940193e-01  -9.4055595306363005e-01  -9.5791178212276262e-01  -9.7027842035993539e-01  -9.7905050861112086e-01  -9.8525302200512987e-01  -9.8962877322056408e-01  -9.9271087684539616e-01  -9.9487936372366581e-01  -9.9640386036348938e-01  -9.9747503133928550e-01  -9.9822739218760415e-01  -9.9875569121452668e-01  -9.9912659039486662e-01  -9.9938695387080767e-01  -9.9956970945754287e-01  -9.9969798408742538e-01  -9.9978801669531547e-01  -9.9985120762201751e-01  -9.9989555934930385e-01  -9.9992668877410296e-01  -9.9994853816521378e-01  -9.9996387435902734e-01  -9.9997463920282925e-01  -9.9998219554042933e-01  -9.9998749986159408e-01  -9.9999122347261782e-01  -9.9999383753474813e-01  -9.9999567274382439e-01  -9.9999696121302528e-01  -9.9999786586600603e-01  -9.9999850106510102e-01  -9.9999894708850023e-01  -9.9999926029074948e-01  -9.9999948023385377e-01  -9.9999963469234510e-01  -9.9999974316626628e-01  -9.9999981934696203e-01  -9.9999987284789593e-01  -9.9999991041961112e-01  -9.9999993680261412e-01  -9.9999995532611108e-01  -9.9999996832834592e-01  -9.9999997745170921e-01  -9.9999998384993549e-01  -9.9999998833358461e-01  -9.9999999147219298e-01  -9.9999999366600434e-01  -9.9999999519633931e-01  -9.9999999626096647e-01  -9.9999999699893838e-01  -9.9999999750802959e-01  -9.9999999785697613e-01  -9.9999999809406148e-01  -9.9999999825313113e-01  -9.9999999835779874e-01  -9.9999999842437415e-01  -9.9999999846389120e-01  -9.9999999848349541e-01  -9.9999999848734655e-01  9.9995612934764411e-01  9.9995333039822598e-01  9.9994457658285096e-01  9.9992875643359613e-01  9.9990385540923044e-01  9.9986669928483818e-01  9.9981255020383886e-01  9.9973450333710123e-01  9.9962260751500498e-01  9.9946259856835551e-01  9.9923408562823302e-01  9.9890796276683835e-01  9.9844272355795027e-01  9.9777922449019196e-01  9.9683326231398617e-01  9.9548508621395626e-01  9.9356464496196828e-01  9.9083096672386095e-01  9.8694360399167669e-01  9.8142362545314632e-01  9.7360140251554939e-01  9.6254886806035855e-01  9.4699590783538046e-01  9.2523567300293785e-01  8.9503436013254933e-01  8.5358039858812451e-01  7.9753743948299261e-01  7.2329914770494730e-01  6.2755806817651150e-01  5.0824659585982490e-01  3.6572828582907924e-01  2.0382305701114581e-01  3.0023562059413186e-02  -1.4557918230001246e-01  -3.1247932119572897e-01  -4.6212945006360234e-01  -5.8944730858595851e-01  -6.9300057053851938e-01  -7.7417714809084770e-01  -8.3598783858029735e-01  -8.8201580059495632e-01  -9.1572472308184016e-01  -9.4011150925657450e-01  -9.5759848734111241e-01  -9.7005837242053639e-01  -9.7889624773299877e-01  -9.8514495788695722e-01  -9.8955306644449348e-01  -9.9265780897014100e-01  -9.9484213299206858e-01  -9.9637771382070195e-01  -9.9745664901265196e-01  -9.9821445422654898e-01  -9.9874657528800992e-01  -9.9912016074512244e-01  -9.9938241442267295e-01  -9.9956650153140258e-01  -9.9969571512219157e-01  -9.9978641052563133e-01  -9.9985006974616297e-01  -9.9989475263434224e-01  -9.9992611643782225e-01  -9.9994813183893472e-01  -9.9996358570336907e-01  -9.9997443401166342e-01  -9.9998204958981107e-01  -9.9998739598408282e-01  -9.9999114949318657e-01  -9.9999378481318746e-01  -9.9999563514453604e-01  -9.9999693437629167e-01  -9.9999784669211711e-01  -9.9999848734889951e-01  -9.9999893726030875e-01  -9.9999925323259209e-01  -9.9999947514900978e-01  -9.9999963101270228e-01  -9.9999974048648455e-01  -9.9999981737766319e-01  -9.9999987138236457e-01  -9.9999990931009541e-01  -9.9999993594345171e-01  -9.9999995464170832e-01  -9.9999996776461197e-01  -9.9999997696994991e-01  -9.9999998342249785e-01  -9.9999998794074996e-01  -9.9999999109995896e-01  -9.9999999330450118e-01  -9.9999999483869750e-01  -9.9999999590250599e-01  -9.9999999663658767e-01  -9.9999999713990706e-01  -9.9999999748208845e-01  -9.9999999771208303e-01  -9.9999999786424310e-01  -9.9999999796256767e-01  -9.9999999802365758e-01  -9.9999999805875084e-01  -9.9999999807509399e-01  -9.9999999807680195e-01  9.9995636448249259e-01  9.9995358537832679e-01  9.9994488933974968e-01  9.9992917069168052e-01  9.9990442823000325e-01  9.9986751007126951e-01  9.9981371236214167e-01  9.9973618053039448e-01  9.9962503704813799e-01  9.9946612538648316e-01  9.9923921190332321e-01  9.9891542028764935e-01  9.9845357941964641e-01  9.9779503531326175e-01  9.9685629896118810e-01  9.9551866039403070e-01  9.9361358190814308e-01  9.9090228473750541e-01  9.8704748147586852e-01  9.8157475600725153e-01  9.7382084998298746e-01  9.6286651625847774e-01  9.4745351443437420e-01  9.2589031390202725e-01  8.9596158609247123e-01  8.5487561097485920e-01  7.9931282856152264e-01  7.2567241142942873e-01  6.3062921327155352e-01  5.1206245175140364e-01  3.7024248163619183e-01  2.0886965801184956e-01  3.5326168573048565e-02  -1.4035442764181255e-01  -3.0764502191574211e-01  -4.5790892321632481e-01  -5.8594545241593499e-01  -6.9021584980662465e-01  -7.7203674013814694e-01  -8.3438531548869510e-01  -8.8083936223120574e-01  -9.1487336591974433e-01  -9.3950163104946849e-01  -9.5716464036362181e-01  -9.6975118020095308e-01  -9.7867937548528705e-01  -9.8499211471233450e-01  -9.8944544307064619e-01  -9.9258204896314717e-01  -9.9478879740993620e-01  -9.9634015179070534e-01  -9.9743018194667410e-01  -9.9819579350752985e-01  -9.9873340975267000e-01  -9.9911086583434716e-01  -9.9937584769077592e-01  -9.9956185908912709e-01  -9.9969243092007454e-01  -9.9978408569689547e-01  -9.9984842302164700e-01  -9.9989358552578556e-01  -9.9992528877394282e-01  -9.9994754456269608e-01  -9.9996316876557911e-01  -9.9997413784428835e-01  -9.9998183909579863e-01  -9.9998724629775226e-01  -9.9999104298738639e-01  -9.9999370898508377e-01  -9.9999558112107789e-01  -9.9999689585704243e-01  -9.9999781920099540e-01  -9.9999846770425149e-01  -9.9999892319939110e-01  -9.9999924314532873e-01  -9.9999946788912231e-01  -9.9999962576366330e-01  -9.9999973666633168e-01  -9.9999981457137743e-01  -9.9999986929380935e-01  -9.9999990772784342e-01  -9.9999993471647630e-01  -9.9999995366208583e-01  -9.9999996695520910e-01  -9.9999997627565473e-01  -9.9999998280397484e-01  -9.9999998736998885e-01  -9.9999999055710231e-01  -9.9999999277558060e-01  -9.9999999431401843e-01  -9.9999999537549200e-01  -9.9999999610295331e-01  -9.9999999659706262e-01  -9.9999999692870978e-01  -9.9999999714779819e-01  -9.9999999728940037e-01  -9.9999999737806100e-01  -9.9999999743078716e-01  -9.9999999745910595e-01  -9.9999999747044177e-01  -9.9999999746898083e-01  9.9995669299543766e-01  9.9995393845585012e-01  9.9994531688711907e-01  9.9992973205186286e-01  9.9990520081574596e-01  9.9986860057658267e-01  9.9981527192866593e-01  9.9973842602958285e-01  9.9962828154935324e-01  9.9947082216157024e-01  9.9924601819974224e-01  9.9892528984783679e-01  9.9846789668228186e-01  9.9781580987028362e-01  9.9688644676267701e-01  9.9556240909333649e-01  9.9367705229275238e-01  9.9099431867591026e-01  9.8718080827994092e-01  9.8176760964129328e-01  9.7409915885801612e-01  9.6326676276459822e-01  9.4802625844231858e-01  9.2670411567945310e-01  8.9710653467724888e-01  8.5646474309203691e-01  8.0147841071738601e-01  7.2855277941292829e-01  6.3434192492376373e-01  5.1666321611510280e-01  3.7567851737458485e-01  2.1494820465975886e-01  4.1723521483088957e-02  -1.3403265587425597e-01  -3.0177232451349756e-01  -4.5275689212069181e-01  -5.8164710435983213e-01  -6.8677732811553893e-01  -7.6937732603470266e-01  -8.3238163622172612e-01  -8.7935925742302246e-01  -9.1379581390995801e-01  -9.3872533565551419e-01  -9.5660950877526196e-01  -9.6935623190004094e-01  -9.7839935523437283e-01  -9.8479402060167187e-01  -9.8930549575889692e-01  -9.9248325374098167e-01  -9.9471907493036127e-01  -9.9629094734863288e-01  -9.9739545088823467e-01  -9.9817127058998423e-01  -9.9871608750659779e-01  -9.9909862425631635e-01  -9.9936719233141069e-01  -9.9955573623307781e-01  -9.9968809734176522e-01  -9.9978101693934718e-01  -9.9984624881953421e-01  -9.9989204433657397e-01  -9.9992419575452307e-01  -9.9994676900659518e-01  -9.9996261819821763e-01  -9.9997374680565831e-01  -9.9998156122473392e-01  -9.9998704874290523e-01  -9.9999090245880073e-01  -9.9999360896324418e-01  -9.9999550988305097e-01  -9.9999684507975417e-01  -9.9999778297238484e-01  -9.9999844182283859e-01  -9.9999890467789476e-01  -9.9999922985872303e-01  -9.9999945832498749e-01  -9.9999961884501853e-01  -9.9999973162585176e-01  -9.9999981086205292e-01  -9.9999986652546602e-01  -9.9999990562201913e-01  -9.9999993307433488e-01  -9.9999995234159444e-01  -9.9999996585489836e-01  -9.9999997532306062e-01  -9.9999998194740969e-01  -9.9999998657268085e-01  -9.9999998979302007e-01  -9.9999999202645684e-01  -9.9999999356722558e-01  -9.9999999462252509e-01  -9.9999999533834261e-01  -9.9999999581759202e-01  -9.9999999613285129e-01  -9.9999999633529890e-01  -9.9999999646097615e-01  -9.9999999653516325e-01  -9.9999999657542094e-01  -9.9999999659367822e-01  -9.9999999659763084e-01  -9.9999999659162275e-01  9.9995711062412607e-01  9.9995438595155761e-01  9.9994585605336372e-01  9.9993043700432360e-01  9.9990616826731182e-01  9.9986996334841260e-01  9.9981721744121210e-01  9.9974122231358931e-01  9.9963231439858080e-01  9.9947664859290353e-01  9.9925444361790638e-01  9.9893747952640044e-01  9.9848553676436114e-01  9.9784133958210552e-01  9.9692339257703377e-01  9.9561586393038348e-01  9.9375435919706090e-01  9.9110603899098049e-01  9.8734207799364515e-01  9.8200000981709878e-01  9.7443323536298410e-01  9.6374530162204952e-01  9.4870830668655859e-01  9.2766944719909372e-01  8.9845966736789229e-01  8.5833657898566673e-01  8.0402208474935288e-01  7.3192882301849926e-01  6.3868782403262003e-01  5.2204648241079210e-01  3.8204270589713374e-01  2.2207524261068806e-01  4.9241761099676679e-02  -1.2658106028955016e-01  -2.9482606352755780e-01  -4.4664002706458811e-01  -5.7652364439918702e-01  -6.8266226467623525e-01  -7.6618184971557446e-01  -8.2996449459744059e-01  -8.7756679312092589e-01  -9.1248596273089722e-01  -9.3777831219116781e-01  -9.5593000928125438e-01  -9.6887128872268424e-01  -9.7805453881503679e-01  -9.8454944949940015e-01  -9.8913230653636908e-01  -9.9236073397933633e-01  -9.9463244780931082e-01  -9.9622971224846901e-01  -9.9735216548808470e-01  -9.9814066904541765e-01  -9.9869444777873329e-01  -9.9908331699022146e-01  -9.9935636051495014e-01  -9.9954806834209553e-01  -9.9968266696864050e-01  -9.9977716954016782e-01  -9.9984352178159364e-01  -9.9989011057615451e-01  -9.9992282391822329e-01  -9.9994579538401118e-01  -9.9996192689442265e-01  -9.9997325573970686e-01  -9.9998121223847003e-01  -9.9998680061053580e-01  -9.9999072594439331e-01  -9.9999348332464388e-01  -9.9999542039782352e-01  -9.9999678129360614e-01  -9.9999773745853682e-01  -9.9999840930292028e-01  -9.9999888139874626e-01  -9.9999921315042473e-01  -9.9999944628728588e-01  -9.9999961012476035e-01  -9.9999972525895076e-01  -9.9999980616123696e-01  -9.9999986300051336e-01  -9.9999990292306196e-01  -9.9999993095154605e-01  -9.9999995061651548e-01  -9.9999996440004091e-01  -9.9999997404739172e-01  -9.9999998078601926e-01  -9.9999998547942626e-01  -9.9999998873528673e-01  -9.9999999098142422e-01  -9.9999999251920435e-01  -9.9999999356105396e-01  -9.9999999425682484e-01  -9.9999999471231527e-01  -9.9999999500227610e-01  -9.9999999517953841e-01  -9.9999999528140815e-01  -9.9999999533413486e-01  -9.9999999535601491e-01  -9.9999999535952233e-01  -9.9999999535273487e-01  -9.9