<?xml version="1.0"?>
<VTKFile type="UnstructuredGrid"  version="0.1"  >
<UnstructuredGrid>
<Piece  NumberOfPoints="10201" NumberOfCells="20000">
<Points>
<DataArray  type="Float64"  NumberOfComponents="3"  format="ascii">0 0 0  0.25 0 0  0.5 0 0  0.75 0 0  1 0 0  1.25 0 0  1.5 0 0  1.75 0 0  2 0 0  2.25 0 0  2.5 0 0  2.75 0 0  3 0 0  3.25 0 0  3.5 0 0  3.75 0 0  4 0 0  4.25 0 0  4.5 0 0  4.75 0 0  5 0 0  5.25 0 0  5.5 0 0  5.75 0 0  6 0 0  6.25 0 0  6.5 0 0  6.75 0 0  7 0 0  7.25 0 0  7.5 0 0  7.75 0 0  8 0 0  8.25 0 0  8.5 0 0  8.75 0 0  9 0 0  9.25 0 0  9.5 0 0  9.75 0 0  10 0 0  10.25 0 0  10.5 0 0  10.75 0 0  11 0 0  11.25 0 0  11.5 0 0  11.75 0 0  12 0 0  12.25 0 0  12.5 0 0  12.75 0 0  13 0 0  13.25 0 0  13.5 0 0  13.75 0 0  14 0 0  14.25 0 0  14.5 0 0  14.75 0 0  15 0 0  15.25 0 0  15.5 0 0  15.75 0 0  16 0 0  16.25 0 0  16.5 0 0  16.75 0 0  17 0 0  17.25 0 0  17.5 0 0  17.75 0 0  18 0 0  18.25 0 0  18.5 0 0  18.75 0 0  19 0 0  19.25 0 0  19.5 0 0  19.75 0 0  20 0 0  20.25 0 0  20.5 0 0  20.75 0 0  21 0 0  21.25 0 0  21.5 0 0  21.75 0 0  22 0 0  22.25 0 0  22.5 0 0  22.75 0 0  23 0 0  23.25 0 0  23.5 0 0  23.75 0 0  24 0 0  24.25 0 0  24.5 0 0  24.75 0 0  25 0 0  0 0.25 0  0.25 0.25 0  0.5 0.25 0  0.75 0.25 0  1 0.25 0  1.25 0.25 0  1.5 0.25 0  1.75 0.25 0  2 0.25 0  2.25 0.25 0  2.5 0.25 0  2.75 0.25 0  3 0.25 0  3.25 0.25 0  3.5 0.25 0  3.75 0.25 0  4 0.25 0  4.25 0.25 0  4.5 0.25 0  4.75 0.25 0  5 0.25 0  5.25 0.25 0  5.5 0.25 0  5.75 0.25 0  6 0.25 0  6.25 0.25 0  6.5 0.25 0  6.75 0.25 0  7 0.25 0  7.25 0.25 0  7.5 0.25 0  7.75 0.25 0  8 0.25 0  8.25 0.25 0  8.5 0.25 0  8.75 0.25 0  9 0.25 0  9.25 0.25 0  9.5 0.25 0  9.75 0.25 0  10 0.25 0  10.25 0.25 0  10.5 0.25 0  10.75 0.25 0  11 0.25 0  11.25 0.25 0  11.5 0.25 0  11.75 0.25 0  12 0.25 0  12.25 0.25 0  12.5 0.25 0  12.75 0.25 0  13 0.25 0  13.25 0.25 0  13.5 0.25 0  13.75 0.25 0  14 0.25 0  14.25 0.25 0  14.5 0.25 0  14.75 0.25 0  15 0.25 0  15.25 0.25 0  15.5 0.25 0  15.75 0.25 0  16 0.25 0  16.25 0.25 0  16.5 0.25 0  16.75 0.25 0  17 0.25 0  17.25 0.25 0  17.5 0.25 0  17.75 0.25 0  18 0.25 0  18.25 0.25 0  18.5 0.25 0  18.75 0.25 0  19 0.25 0  19.25 0.25 0  19.5 0.25 0  19.75 0.25 0  20 0.25 0  20.25 0.25 0  20.5 0.25 0  20.75 0.25 0  21 0.25 0  21.25 0.25 0  21.5 0.25 0  21.75 0.25 0  22 0.25 0  22.25 0.25 0  22.5 0.25 0  22.75 0.25 0  23 0.25 0  23.25 0.25 0  23.5 0.25 0  23.75 0.25 0  24 0.25 0  24.25 0.25 0  24.5 0.25 0  24.75 0.25 0  25 0.25 0  0 0.5 0  0.25 0.5 0  0.5 0.5 0  0.75 0.5 0  1 0.5 0  1.25 0.5 0  1.5 0.5 0  1.75 0.5 0  2 0.5 0  2.25 0.5 0  2.5 0.5 0  2.75 0.5 0  3 0.5 0  3.25 0.5 0  3.5 0.5 0  3.75 0.5 0  4 0.5 0  4.25 0.5 0  4.5 0.5 0  4.75 0.5 0  5 0.5 0  5.25 0.5 0  5.5 0.5 0  5.75 0.5 0  6 0.5 0  6.25 0.5 0  6.5 0.5 0  6.75 0.5 0  7 0.5 0  7.25 0.5 0  7.5 0.5 0  7.75 0.5 0  8 0.5 0  8.25 0.5 0  8.5 0.5 0  8.75 0.5 0  9 0.5 0  9.25 0.5 0  9.5 0.5 0  9.75 0.5 0  10 0.5 0  10.25 0.5 0  10.5 0.5 0  10.75 0.5 0  11 0.5 0  11.25 0.5 0  11.5 0.5 0  11.75 0.5 0  12 0.5 0  12.25 0.5 0  12.5 0.5 0  12.75 0.5 0  13 0.5 0  13.25 0.5 0  13.5 0.5 0  13.75 0.5 0  14 0.5 0  14.25 0.5 0  14.5 0.5 0  14.75 0.5 0  15 0.5 0  15.25 0.5 0  15.5 0.5 0  15.75 0.5 0  16 0.5 0  16.25 0.5 0  16.5 0.5 0  16.75 0.5 0  17 0.5 0  17.25 0.5 0  17.5 0.5 0  17.75 0.5 0  18 0.5 0  18.25 0.5 0  18.5 0.5 0  18.75 0.5 0  19 0.5 0  19.25 0.5 0  19.5 0.5 0  19.75 0.5 0  20 0.5 0  20.25 0.5 0  20.5 0.5 0  20.75 0.5 0  21 0.5 0  21.25 0.5 0  21.5 0.5 0  21.75 0.5 0  22 0.5 0  22.25 0.5 0  22.5 0.5 0  22.75 0.5 0  23 0.5 0  23.25 0.5 0  23.5 0.5 0  23.75 0.5 0  24 0.5 0  24.25 0.5 0  24.5 0.5 0  24.75 0.5 0  25 0.5 0  0 0.75 0  0.25 0.75 0  0.5 0.75 0  0.75 0.75 0  1 0.75 0  1.25 0.75 0  1.5 0.75 0  1.75 0.75 0  2 0.75 0  2.25 0.75 0  2.5 0.75 0  2.75 0.75 0  3 0.75 0  3.25 0.75 0  3.5 0.75 0  3.75 0.75 0  4 0.75 0  4.25 0.75 0  4.5 0.75 0  4.75 0.75 0  5 0.75 0  5.25 0.75 0  5.5 0.75 0  5.75 0.75 0  6 0.75 0  6.25 0.75 0  6.5 0.75 0  6.75 0.75 0  7 0.75 0  7.25 0.75 0  7.5 0.75 0  7.75 0.75 0  8 0.75 0  8.25 0.75 0  8.5 0.75 0  8.75 0.75 0  9 0.75 0  9.25 0.75 0  9.5 0.75 0  9.75 0.75 0  10 0.75 0  10.25 0.75 0  10.5 0.75 0  10.75 0.75 0  11 0.75 0  11.25 0.75 0  11.5 0.75 0  11.75 0.75 0  12 0.75 0  12.25 0.75 0  12.5 0.75 0  12.75 0.75 0  13 0.75 0  13.25 0.75 0  13.5 0.75 0  13.75 0.75 0  14 0.75 0  14.25 0.75 0  14.5 0.75 0  14.75 0.75 0  15 0.75 0  15.25 0.75 0  15.5 0.75 0  15.75 0.75 0  16 0.75 0  16.25 0.75 0  16.5 0.75 0  16.75 0.75 0  17 0.75 0  17.25 0.75 0  17.5 0.75 0  17.75 0.75 0  18 0.75 0  18.25 0.75 0  18.5 0.75 0  18.75 0.75 0  19 0.75 0  19.25 0.75 0  19.5 0.75 0  19.75 0.75 0  20 0.75 0  20.25 0.75 0  20.5 0.75 0  20.75 0.75 0  21 0.75 0  21.25 0.75 0  21.5 0.75 0  21.75 0.75 0  22 0.75 0  22.25 0.75 0  22.5 0.75 0  22.75 0.75 0  23 0.75 0  23.25 0.75 0  23.5 0.75 0  23.75 0.75 0  24 0.75 0  24.25 0.75 0  24.5 0.75 0  24.75 0.75 0  25 0.75 0  0 1 0  0.25 1 0  0.5 1 0  0.75 1 0  1 1 0  1.25 1 0  1.5 1 0  1.75 1 0  2 1 0  2.25 1 0  2.5 1 0  2.75 1 0  3 1 0  3.25 1 0  3.5 1 0  3.75 1 0  4 1 0  4.25 1 0  4.5 1 0  4.75 1 0  5 1 0  5.25 1 0  5.5 1 0  5.75 1 0  6 1 0  6.25 1 0  6.5 1 0  6.75 1 0  7 1 0  7.25 1 0  7.5 1 0  7.75 1 0  8 1 0  8.25 1 0  8.5 1 0  8.75 1 0  9 1 0  9.25 1 0  9.5 1 0  9.75 1 0  10 1 0  10.25 1 0  10.5 1 0  10.75 1 0  11 1 0  11.25 1 0  11.5 1 0  11.75 1 0  12 1 0  12.25 1 0  12.5 1 0  12.75 1 0  13 1 0  13.25 1 0  13.5 1 0  13.75 1 0  14 1 0  14.25 1 0  14.5 1 0  14.75 1 0  15 1 0  15.25 1 0  15.5 1 0  15.75 1 0  16 1 0  16.25 1 0  16.5 1 0  16.75 1 0  17 1 0  17.25 1 0  17.5 1 0  17.75 1 0  18 1 0  18.25 1 0  18.5 1 0  18.75 1 0  19 1 0  19.25 1 0  19.5 1 0  19.75 1 0  20 1 0  20.25 1 0  20.5 1 0  20.75 1 0  21 1 0  21.25 1 0  21.5 1 0  21.75 1 0  22 1 0  22.25 1 0  22.5 1 0  22.75 1 0  23 1 0  23.25 1 0  23.5 1 0  23.75 1 0  24 1 0  24.25 1 0  24.5 1 0  24.75 1 0  25 1 0  0 1.25 0  0.25 1.25 0  0.5 1.25 0  0.75 1.25 0  1 1.25 0  1.25 1.25 0  1.5 1.25 0  1.75 1.25 0  2 1.25 0  2.25 1.25 0  2.5 1.25 0  2.75 1.25 0  3 1.25 0  3.25 1.25 0  3.5 1.25 0  3.75 1.25 0  4 1.25 0  4.25 1.25 0  4.5 1.25 0  4.75 1.25 0  5 1.25 0  5.25 1.25 0  5.5 1.25 0  5.75 1.25 0  6 1.25 0  6.25 1.25 0  6.5 1.25 0  6.75 1.25 0  7 1.25 0  7.25 1.25 0  7.5 1.25 0  7.75 1.25 0  8 1.25 0  8.25 1.25 0  8.5 1.25 0  8.75 1.25 0  9 1.25 0  9.25 1.25 0  9.5 1.25 0  9.75 1.25 0  10 1.25 0  10.25 1.25 0  10.5 1.25 0  10.75 1.25 0  11 1.25 0  11.25 1.25 0  11.5 1.25 0  11.75 1.25 0  12 1.25 0  12.25 1.25 0  12.5 1.25 0  12.75 1.25 0  13 1.25 0  13.25 1.25 0  13.5 1.25 0  13.75 1.25 0  14 1.25 0  14.25 1.25 0  14.5 1.25 0  14.75 1.25 0  15 1.25 0  15.25 1.25 0  15.5 1.25 0  15.75 1.25 0  16 1.25 0  16.25 1.25 0  16.5 1.25 0  16.75 1.25 0  17 1.25 0  17.25 1.25 0  17.5 1.25 0  17.75 1.25 0  18 1.25 0  18.25 1.25 0  18.5 1.25 0  18.75 1.25 0  19 1.25 0  19.25 1.25 0  19.5 1.25 0  19.75 1.25 0  20 1.25 0  20.25 1.25 0  20.5 1.25 0  20.75 1.25 0  21 1.25 0  21.25 1.25 0  21.5 1.25 0  21.75 1.25 0  22 1.25 0  22.25 1.25 0  22.5 1.25 0  22.75 1.25 0  23 1.25 0  23.25 1.25 0  23.5 1.25 0  23.75 1.25 0  24 1.25 0  24.25 1.25 0  24.5 1.25 0  24.75 1.25 0  25 1.25 0  0 1.5 0  0.25 1.5 0  0.5 1.5 0  0.75 1.5 0  1 1.5 0  1.25 1.5 0  1.5 1.5 0  1.75 1.5 0  2 1.5 0  2.25 1.5 0  2.5 1.5 0  2.75 1.5 0  3 1.5 0  3.25 1.5 0  3.5 1.5 0  3.75 1.5 0  4 1.5 0  4.25 1.5 0  4.5 1.5 0  4.75 1.5 0  5 1.5 0  5.25 1.5 0  5.5 1.5 0  5.75 1.5 0  6 1.5 0  6.25 1.5 0  6.5 1.5 0  6.75 1.5 0  7 1.5 0  7.25 1.5 0  7.5 1.5 0  7.75 1.5 0  8 1.5 0  8.25 1.5 0  8.5 1.5 0  8.75 1.5 0  9 1.5 0  9.25 1.5 0  9.5 1.5 0  9.75 1.5 0  10 1.5 0  10.25 1.5 0  10.5 1.5 0  10.75 1.5 0  11 1.5 0  11.25 1.5 0  11.5 1.5 0  11.75 1.5 0  12 1.5 0  12.25 1.5 0  12.5 1.5 0  12.75 1.5 0  13 1.5 0  13.25 1.5 0  13.5 1.5 0  13.75 1.5 0  14 1.5 0  14.25 1.5 0  14.5 1.5 0  14.75 1.5 0  15 1.5 0  15.25 1.5 0  15.5 1.5 0  15.75 1.5 0  16 1.5 0  16.25 1.5 0  16.5 1.5 0  16.75 1.5 0  17 1.5 0  17.25 1.5 0  17.5 1.5 0  17.75 1.5 0  18 1.5 0  18.25 1.5 0  18.5 1.5 0  18.75 1.5 0  19 1.5 0  19.25 1.5 0  19.5 1.5 0  19.75 1.5 0  20 1.5 0  20.25 1.5 0  20.5 1.5 0  20.75 1.5 0  21 1.5 0  21.25 1.5 0  21.5 1.5 0  21.75 1.5 0  22 1.5 0  22.25 1.5 0  22.5 1.5 0  22.75 1.5 0  23 1.5 0  23.25 1.5 0  23.5 1.5 0  23.75 1.5 0  24 1.5 0  24.25 1.5 0  24.5 1.5 0  24.75 1.5 0  25 1.5 0  0 1.75 0  0.25 1.75 0  0.5 1.75 0  0.75 1.75 0  1 1.75 0  1.25 1.75 0  1.5 1.75 0  1.75 1.75 0  2 1.75 0  2.25 1.75 0  2.5 1.75 0  2.75 1.75 0  3 1.75 0  3.25 1.75 0  3.5 1.75 0  3.75 1.75 0  4 1.75 0  4.25 1.75 0  4.5 1.75 0  4.75 1.75 0  5 1.75 0  5.25 1.75 0  5.5 1.75 0  5.75 1.75 0  6 1.75 0  6.25 1.75 0  6.5 1.75 0  6.75 1.75 0  7 1.75 0  7.25 1.75 0  7.5 1.75 0  7.75 1.75 0  8 1.75 0  8.25 1.75 0  8.5 1.75 0  8.75 1.75 0  9 1.75 0  9.25 1.75 0  9.5 1.75 0  9.75 1.75 0  10 1.75 0  10.25 1.75 0  10.5 1.75 0  10.75 1.75 0  11 1.75 0  11.25 1.75 0  11.5 1.75 0  11.75 1.75 0  12 1.75 0  12.25 1.75 0  12.5 1.75 0  12.75 1.75 0  13 1.75 0  13.25 1.75 0  13.5 1.75 0  13.75 1.75 0  14 1.75 0  14.25 1.75 0  14.5 1.75 0  14.75 1.75 0  15 1.75 0  15.25 1.75 0  15.5 1.75 0  15.75 1.75 0  16 1.75 0  16.25 1.75 0  16.5 1.75 0  16.75 1.75 0  17 1.75 0  17.25 1.75 0  17.5 1.75 0  17.75 1.75 0  18 1.75 0  18.25 1.75 0  18.5 1.75 0  18.75 1.75 0  19 1.75 0  19.25 1.75 0  19.5 1.75 0  19.75 1.75 0  20 1.75 0  20.25 1.75 0  20.5 1.75 0  20.75 1.75 0  21 1.75 0  21.25 1.75 0  21.5 1.75 0  21.75 1.75 0  22 1.75 0  22.25 1.75 0  22.5 1.75 0  22.75 1.75 0  23 1.75 0  23.25 1.75 0  23.5 1.75 0  23.75 1.75 0  24 1.75 0  24.25 1.75 0  24.5 1.75 0  24.75 1.75 0  25 1.75 0  0 2 0  0.25 2 0  0.5 2 0  0.75 2 0  1 2 0  1.25 2 0  1.5 2 0  1.75 2 0  2 2 0  2.25 2 0  2.5 2 0  2.75 2 0  3 2 0  3.25 2 0  3.5 2 0  3.75 2 0  4 2 0  4.25 2 0  4.5 2 0  4.75 2 0  5 2 0  5.25 2 0  5.5 2 0  5.75 2 0  6 2 0  6.25 2 0  6.5 2 0  6.75 2 0  7 2 0  7.25 2 0  7.5 2 0  7.75 2 0  8 2 0  8.25 2 0  8.5 2 0  8.75 2 0  9 2 0  9.25 2 0  9.5 2 0  9.75 2 0  10 2 0  10.25 2 0  10.5 2 0  10.75 2 0  11 2 0  11.25 2 0 
[...]
<PointData  Scalars="f_26"> 
<DataArray  type="Float64"  Name="f_26"  format="ascii">7.6242165302238729e-01  7.6206147101104749e-01  7.6140104432542344e-01  7.6036474510829932e-01  7.5891011824393506e-01  7.5699562729316516e-01  7.5457191311802707e-01  7.5157841637070788e-01  7.4794124129599993e-01  7.4357123785337498e-01  7.3836202536853868e-01  7.3218788822923664e-01  7.2490155256076139e-01  7.1633190562598015e-01  7.0628177899640288e-01  6.9452599672638748e-01  6.8080999992324764e-01  6.6484950480667859e-01  6.4633183236609515e-01  6.2491975295156443e-01  6.0025888891930868e-01  5.7198985527005231e-01  5.3976629877399396e-01  5.0327969150330931e-01  4.6229099966274567e-01  4.1666807185440841e-01  3.6642578290582506e-01  3.1176387089065061e-01  2.5309556269011546e-01  1.9105930433969207e-01  1.2650701779455889e-01  6.0465702557699515e-02  -5.9255446296385059e-03  -7.1495293955941522e-02  -1.3512425707511591e-01  -1.9582117244355055e-01  -2.5277909476918375e-01  -3.0540598884309283e-01  -3.5332925490932887e-01  -3.9637855749254169e-01  -4.3455401111822128e-01  -4.6798726114018407e-01  -4.9690185516021768e-01  -5.2157736056918447e-01  -5.4231967019772798e-01  -5.5943829490467067e-01  -5.7323033274872925e-01  -5.8397020007886180e-01  -5.9190398930626986e-01  -5.9724734235295474e-01  -6.0018588068194001e-01  -6.0087742998194527e-01  -5.9945547008442090e-01  -5.9603340301292917e-01  -5.9070935446984474e-01  -5.8357130581169980e-01  -5.7470239844393867e-01  -5.6418626645776859e-01  -5.5211224318538210e-01  -5.3858026100248657e-01  -5.2370523002368441e-01  -5.0762065024273240e-01  -4.9048119375404192e-01  -4.7246399918128773e-01  -4.5376845756115658e-01  -4.3461434191547343e-01  -4.1523823998207560e-01  -3.9588838258234071e-01  -3.7681810392275744e-01  -3.5827830542565531e-01  -3.4050940131457347e-01  -3.2373328539807344e-01  -3.0814586465558463e-01  -2.9391065585093767e-01  -2.8115384498624690e-01  -2.6996108111920375e-01  -2.6037613405207427e-01  -2.5240140696662539e-01  -2.4600017373987243e-01  -2.4110031471311374e-01  -2.3759925724724518e-01  -2.3536978767919439e-01  -2.3426638617474330e-01  -2.3413174147867777e-01  -2.3480312482960558e-01  -2.3611833795557552e-01  -2.3792099614710105e-01  -2.4006496114147063e-01  -2.4241779712402173e-01  -2.4486318362252071e-01  -2.4730227850123551e-01  -2.4965407994078948e-01  -2.5185488601272199e-01  -2.5385699283731639e-01  -2.5562680732608817e-01  -2.5714258110902760e-01  -2.5839201037490195e-01  -2.5937003754936255e-01  -2.6007752212613205e-01  -2.6052285116545926e-01  -2.6073496345377428e-01  7.6144066716121983e-01  7.6120316833786816e-01  7.6057400782159079e-01  7.5954801071772193e-01  7.5809845734088221e-01  7.5618761780310073e-01  7.5376710531553448e-01  7.5077657223313909e-01  7.4714209743250792e-01  7.4277442210784228e-01  7.3756703010726765e-01  7.3139407273501889e-01  7.2410816703757563e-01  7.1553813625943341e-01  7.0548681652627965e-01  6.9372913254727131e-01  6.8001075437498071e-01  6.6404779185148999e-01  6.4552816266442592e-01  6.2411547256134270e-01  5.9945644250414398e-01  5.7119305022404365e-01  5.3898053058400397e-01  5.0251207364519357e-01  4.6155032910239119e-01  4.1596456256112646e-01  3.6577052428158163e-01  3.1116802099389085e-01  2.5256936172034106e-01  1.9061107041813896e-01  1.2614233097924046e-01  6.0186963707305682e-02  -6.1190828603263627e-03  -7.1607057360197096e-02  -1.3515959284447265e-01  -1.9578651232777891e-01  -2.5268122351395245e-01  -3.0525152521401089e-01  -3.5312436334978614e-01  -3.9612884469674037e-01  -4.3426453744393190e-01  -4.6766260429468554e-01  -4.9654618605823569e-01  -5.2119451390524352e-01  -5.4191320754755390e-01  -5.5901156505639760e-01  -5.7278653487643427e-01  -5.8351245336267066e-01  -5.9143540992509636e-01  -5.9677112656969322e-01  -5.9970539131080458e-01  -6.0039628273574597e-01  -5.9897761587190212e-01  -5.9556320195467993e-01  -5.9025163709187534e-01  -5.8313141653880673e-01  -5.7428621622808385e-01  -5.6380019728801023e-01  -5.5176317952174869e-01  -5.3827550404284430e-01  -5.2345237229151664e-01  -5.0742741832328342e-01  -4.9035525401902924e-01  -4.7241273278078516e-01  -4.5379871442622699e-01  -4.3473218650732931e-01  -4.1544870353461805e-01  -3.9619523721136801e-01  -3.7722367302357357e-01  -3.5878332233011501e-01  -3.4111292457391523e-01  -3.2443267483385235e-01  -3.0893681807644591e-01  -2.9478730259688085e-01  -2.8210888959198854e-01  -2.7098598852759143e-01  -2.6146134690548273e-01  -2.5353658537542706e-01  -2.4717444833639349e-01  -2.4230254452680433e-01  -2.3881828481909095e-01  -2.3659468477577189e-01  -2.3548668442518783e-01  -2.3533764323221068e-01  -2.3598569051366972e-01  -2.3726964718967228e-01  -2.3903428080159178e-01  -2.4113470937608769e-01  -2.4343982814538900e-01  -2.4583469341704739e-01  -2.4822185709186395e-01  -2.5052170074145552e-01  -2.5267186751259241e-01  -2.5462593180531790e-01  -2.5635147983049206e-01  -2.5782779868873273e-01  -2.5904338712580249e-01  -2.5999349916217995e-01  -2.6067784821186640e-01  -2.6109804021936839e-01  -2.6125101245636090e-01  7.5893450325041878e-01  7.5872954474544552e-01  7.5812493722811347e-01  7.5711545961784343e-01  7.5567882313668422e-01  7.5377966556747344e-01  7.5137049215856955e-01  7.4839111537294967e-01  7.4476743078371732e-01  7.4040983921976045e-01  7.3521142517649707e-01  7.2904594463430472e-01  7.2176567445004303e-01  7.1319920254829883e-01  7.0314928834809254e-01  6.9139099925148029e-01  6.7767043671416072e-01  6.6170450822687710e-01  6.4318237817206225e-01  6.2176942913712763e-01  5.9711475591932428e-01  5.6886334025932661e-01  5.3667402428846345e-01  5.0024409053437746e-01  4.5934052777063483e-01  4.1383681148242601e-01  3.6375227005159266e-01  3.0928907841579673e-01  2.5086014659442202e-01  1.8910042493665949e-01  1.2485521976994343e-01  5.9142399262371359e-02  -6.9095334795716279e-03  -7.2139938027351205e-02  -1.3543932442716369e-01  -1.9582437369454295e-01  -2.5249379923916115e-01  -3.0485892617509830e-01  -3.5254849980219966e-01  -3.9539195237549485e-01  -4.3338806215479142e-01  -4.6666646756670338e-01  -4.9544839750223651e-01  -5.2001106618941295e-01  -5.4065818151517220e-01  -5.5769737759317239e-01  -5.7142427377965921e-01  -5.8211225683068224e-01  -5.9000686054372342e-01  -5.9532363949860900e-01  -5.9824858339759679e-01  -5.9894031366417688e-01  -5.9753349458274163e-01  -5.9414305195197337e-01  -5.8886891337593961e-01  -5.8180106530710152e-01  -5.7302476668726587e-01  -5.6262577347770071e-01  -5.5069541953004464e-01  -5.3733537494165140e-01  -5.2266187199319125e-01  -5.0680916062893511e-01  -4.8993194036731014e-01  -4.7220652320043621e-01  -4.5383052010761182e-01  -4.3502091602733622e-01  -4.1601050267422024e-01  -3.9704276711852421e-01  -3.7836547216190913e-01  -3.6022329378836804e-01  -3.4284998221515878e-01  -3.2646057047734139e-01  -3.1124415897428775e-01  -2.9735775560835098e-01  -2.8492155719593387e-01  -2.7401593320224737e-01  -2.6468023489649178e-01  -2.5691341834974790e-01  -2.5067635135935229e-01  -2.4589558049362803e-01  -2.4246826823129575e-01  -2.4026797104060790e-01  -2.3915091433733673e-01  -2.3896242580776017e-01  -2.3954321082485294e-01  -2.4073518925672638e-01  -2.4238665886660551e-01  -2.4435660389528641e-01  -2.4651802543951484e-01  -2.4876022996194433e-01  -2.5099007078782054e-01  -2.5313219206816245e-01  -2.5512837310362835e-01  -2.5693611123859139e-01  -2.5852661208915445e-01  -2.5988237445188872e-01  -2.6099455872279548e-01  -2.6186029711144182e-01  -2.6247999958390794e-01  -2.6285444408237341e-01  -2.6298106529051385e-01  7.5486753681191265e-01  7.5467482632562377e-01  7.5408775876606882e-01  7.5309625944922387e-01  7.5167766561966598e-01  7.4979694757350257e-01  7.4740668395900456e-01  7.4444642045724163e-01  7.4084154409858372e-01  7.3650181013729010e-01  7.3131960705251930e-01  7.2516801892898353e-01  7.1789874598870196e-01  7.0933996905675778e-01  6.9929429208332450e-01  6.8753697184225548e-01  6.7381475016147885e-01  6.5784574467244150e-01  6.3932102715333172e-01  6.1790871164103467e-01  5.9326155728679775e-01  5.6502920675755552e-01  5.3287614018168461e-01  4.9650610607871948e-01  4.5569306130781734e-01  4.1031741513920861e-01  3.6040464916279658e-01  3.0616141181065376e-01  2.4800248180705858e-01  1.8656131096005324e-01  1.2267795087808110e-01  5.7361410350788566e-02  -8.2715274276842238e-03  -7.3073569068333039e-02  -1.3594871825268928e-01  -1.9592587566952910e-01  -2.5221361256244867e-01  -3.0423015386244256e-01  -3.5160809992918757e-01  -3.9417801831073807e-01  -4.3193768251627301e-01  -4.6501426124625161e-01  -4.9362569514412308e-01  -5.1804563484136246e-01  -5.3857435951720378e-01  -5.5551648902325712e-01  -5.6916521162704314e-01  -5.7979215016595442e-01  -5.8764176607709995e-01  -5.9292921844088975e-01  -5.9584073931366177e-01  -5.9653577629539822e-01  -5.9515033931208772e-01  -5.9180114578792331e-01  -5.8659027712201606e-01  -5.7961013897947766e-01  -5.7094856220866086e-01  -5.6069389615599952e-01  -5.4893993875644542e-01  -5.3579052579675845e-01  -5.2136357376719922e-01  -5.0579434609307017e-01  -4.8923770097174696e-01  -4.7186908960990098e-01  -4.5388411333943840e-01  -4.3549652004317319e-01  -4.1693462234210765e-01  -3.9843624377302927e-01  -3.8024243080400311e-01  -3.6259029046492852e-01  -3.4570540766472768e-01  -3.2979434825989457e-01  -3.1503775542381429e-01  -3.0158449781790125e-01  -2.8954723639986596e-01  -2.7899965619146538e-01  -2.6997547636878189e-01  -2.6246922230293779e-01  -2.5643862902461900e-01  -2.5180845477117364e-01  -2.4847541900409228e-01  -2.4631394119284880e-01  -2.4518234219088880e-01  -2.4492917568881029e-01  -2.4539937943269136e-01  -2.4643997132687651e-01  -2.4790506116477337e-01  -2.4966000164458363e-01  -2.5158455962851800e-01  -2.5357504737994263e-01  -2.5554541093481237e-01  -2.5742732623926257e-01  -2.5916940097122071e-01  -2.6073561916146698e-01  -2.6210319508921825e-01  -2.6326002038808538e-01  -2.6420189074448652e-01  -2.6492968150837426e-01  -2.6544660398431280e-01  -2.6575565055587297e-01  -2.6585752600733120e-01  7.4926405518563699e-01  7.4907897542152746e-01  7.4850691792480284e-01  7.4753476961739207e-01  7.4613847362765706e-01  7.4428227418124959e-01  7.4191810435981143e-01  7.3898474475273612e-01  7.3540667920059588e-01  7.3109266949258089e-01  7.2593409010988785e-01  7.1980306928355275e-01  7.1255049563850903e-01  7.0400397838948747e-01  6.9396589833338562e-01  6.8221176168092790e-01  6.6848917386230300e-01  6.5251788860803273e-01  6.3399155627223747e-01  6.1258198139752207e-01  5.8794687213533170e-01  5.5974216688371592e-01  5.2763996836260973e-01  4.9135278507723429e-01  4.5066404834336288e-01  4.0546365210453100e-01  3.5578558242236674e-01  3.0184280367027000e-01  2.4405295738368563e-01  1.8304783229166002e-01  1.1966069679979080e-01  5.4888779588909788e-02  -1.0166978799550943e-02  -7.4377559175942243e-02  -1.3666565462255434e-01  -1.9607728511300562e-01  -2.5183500411580989e-01  -3.0336697609108454e-01  -3.5031150344213946e-01  -3.9250101658674741e-01  -4.2993209271214722e-01  -4.6272858196524308e-01  -4.9110389730353432e-01  -5.1532672872162832e-01  -5.3569255278232342e-01  -5.5250174967274213e-01  -5.6604407614550145e-01  -5.7658865382780877e-01  -5.8437840847494027e-01  -5.8962790716553570e-01  -5.9252367640300763e-01  -5.9322626585063720e-01  -5.9187350183426479e-01  -5.8858452691375562e-01  -5.8346433712046875e-01  -5.7660860607902564e-01  -5.6810862892551262e-01  -5.5805623459001652e-01  -5.4654850957127332e-01  -5.3369215746880505e-01  -5.1960729462892197e-01  -5.0443046227078270e-01  -4.8831662848182272e-01  -4.7143996779421793e-01  -4.5399324778393046e-01  -4.3618572364805380e-01  -4.1823954034729038e-01  -4.0038475937484364e-01  -3.8285325026363881e-01  -3.6587179924189706e-01  -3.4965487258236511e-01  -3.3439751701764808e-01  -3.2026887704005019e-01  -3.0740675941766554e-01  -2.9591358648172511e-01  -2.8585396455252421e-01  -2.7725396745245828e-01  -2.7010211186551358e-01  -2.6435189278184884e-01  -2.5992566069214851e-01  -2.5671956071863022e-01  -2.5460921736939507e-01  -2.5345583489318452e-01  -2.5311238913807810e-01  -2.5342960900563044e-01  -2.5426148079364413e-01  -2.5547005386829502e-01  -2.5692937823700263e-01  -2.5852846078937808e-01  -2.6017318438463816e-01  -2.6178718990659433e-01  -2.6331177348359547e-01  -2.6470489724037249e-01  -2.6593945051427686e-01  -2.6700092797981545e-01  -2.6788471029518263e-01  -2.6859314082171604e-01  -2.6913258965583664e-01  -2.6951069160760871e-01  -2.6973396516339099e-01  -2.6980612355649358e-01  7.4217944330111840e-01  7.4200125950830265e-01  7.4144427308543770e-01  7.4049362664658258e-01  7.3912385100883249e-01  7.3729802007758116e-01  7.3496693617222919e-01  7.3206817809979707e-01  7.2852493744795233e-01  7.2424462956258384e-01  7.1911729531325530e-01  7.1301382795472790e-01  7.0578408048649133e-01  6.9725494176892144e-01  6.8722852080095076e-01  6.7548065374731170e-01  6.6176005237893887e-01  6.4578854793367746e-01  6.2726304774202679e-01  6.0585999937686030e-01  5.8124331726384226e-01  5.5307681349012028e-01  5.2104210196741085e-01  4.8486260065316611e-01  4.4433352199336351e-01  3.9935654041939284e-01  3.4997619793611645e-01  2.9641329816369405e-01  2.3908904221646857e-01  1.7863316852871003e-01  1.1587053998267578e-01  5.1783759860875897e-02  -1.2545940148904587e-02  -7.6012329528933317e-02  -1.3756147611994876e-01  -1.9626088799624042e-01  -2.5135074996441253e-01  -3.0227184232553850e-01  -3.4866979207401477e-01  -3.9037953275400150e-01  -4.2739628046076372e-01  -4.5983982539766211e-01  -4.8791796699744883e-01  -5.1189320808503813e-01  -5.3205501473734995e-01  -5.4869845013115637e-01  -5.6210896200262983e-01  -5.7255252851043936e-01  -5.8027014334817362e-01  -5.8547562489682248e-01  -5.8835586006427298e-01  -5.8907276532100961e-01  -5.8776641851389433e-01  -5.8455896088860637e-01  -5.7955897974540105e-01  -5.7286615734098234e-01  -5.6457601463210116e-01  -5.5478459501844679e-01  -5.4359293023436472e-01  -5.3111111548704737e-01  -5.1746180193102864e-01  -5.0278290007116477e-01  -4.8722928605343424e-01  -4.7097332138124492e-01  -4.5420404048086410e-01  -4.3712493123211216e-01  -4.1995032791514275e-01  -4.0290054582753515e-01  -3.8619599963185991e-01  -3.7005064840102192e-01  -3.5466518471461811e-01  -3.4022042162638688e-01  -3.2687132408467889e-01  -3.1474208141665067e-01  -3.0392253209782860e-01  -2.9446614307544211e-01  -2.8638962718110850e-01  -2.7967416673593004e-01  -2.7426810970457083e-01  -2.7009092340612717e-01  -2.6703813289512807e-01  -2.6498693680666824e-01  -2.6380218090672819e-01  -2.6334237599448762e-01  -2.6346546901063445e-01  -2.6403411104124808e-01  -2.6492021028740453e-01  -2.6600860900900475e-01  -2.6719977806778195e-01  -2.6841147827579043e-01  -2.6957939184669427e-01  -2.7065677772867114e-01  -2.7161324971039036e-01  -2.7243281449782292e-01  -2.7311133728811349e-01  -2.7365362384950748e-01  -2.7407032052664243e-01  -2.7437483828833670e-01  -2.7458050852750732e-01  -2.7469818518306727e-01  -2.7473452160927164e-01  7.3369540791014165e-01  7.3352445513702380e-01  7.3298378598226599e-01  7.3205739448924501e-01  7.3071850412023442e-01  7.2892881678809329e-01  7.2663767903858556e-01  7.2378111151565772e-01  7.2028066153945969e-01  7.1604206492482037e-01  7.1095372534905954e-01  7.0488503970899574e-01  6.9768462248817409e-01  6.8917851777380457e-01  6.7916854033280605e-01  6.6743096271511804e-01  6.5371586825300432e-01  6.3774762185192790e-01  6.1922706752376311e-01  5.9783622890558297e-01  5.7324643468293379e-01  5.4513085922185145e-01  5.1318237627750563e-01  4.7713726352629021e-01  4.3680455913367033e-01  3.9209969443903508e-01  3.4307946121468713e-01  2.8997366498515764e-01  2.3320744993551587e-01  1.7340790982303037e-01  1.1138983312361062e-01  4.8118500970284479e-02  -1.5348085333068960e-02  -7.7930495158128360e-02  -1.3860226407784276e-01  -1.9645616006429684e-01  -2.5075312540380235e-01  -3.0094883933942196e-01  -3.4669763712677704e-01  -3.8783750623113733e-01  -4.2436217092215511e-01  -4.5638674153059333e-01  -4.8411249022263558e-01  -5.0779469748213257e-01  -5.2771579835522753e-01  -5.4416462975273039e-01  -5.5742159321425910e-01  -5.6774898989977807e-01  -5.7538556123345919e-01  -5.8054426426810590e-01  -5.8341242511887415e-01  -5.8415357421809910e-01  -5.8291042852910724e-01  -5.7980862436593317e-01  -5.7496091049644993e-01  -5.6847158363966865e-01  -5.6044099071833775e-01  -5.5096993992800525e-01  -5.4016386253775361e-01  -5.2813655665654502e-01  -5.1501333069796995e-01  -5.0093335582121501e-01  -4.8605104072340993e-01  -4.7053626511415275e-01  -4.5457335402876320e-01  -4.3835874442951128e-01  -4.2209738467869939e-01  -4.0599800846772965e-01  -3.9026752612869087e-01  -3.7510486462426712e-01  -3.6069465021649921e-01  -3.4720115530521933e-01  -3.3476291874763398e-01  -3.2348839860483647e-01  -3.1345293464340385e-01  -3.0469719580377297e-01  -2.9722717754314731e-01  -2.9101570709897112e-01  -2.8600532057502942e-01  -2.8211230042336816e-01  -2.7923160830113364e-01  -2.7724241673843647e-01  -2.7601393208763708e-01  -2.7541120833828442e-01  -2.7530067361403432e-01  -2.7555512542320060e-01  -2.7605799394774949e-01  -2.7670672187789996e-01  -2.7741516177476366e-01  -2.7811494519001850e-01  -2.7875582965083490e-01  -2.7930507835602758e-01  -2.7974597157367487e-01  -2.8007558706246921e-01  -2.8030201829337781e-01  -2.8044122292387663e-01  -2.8051370931764830e-01  -2.8054127602347662e-01  -2.8054401888774427e-01  -2.8053781287767343e-01  -2.8053245367239610e-01  7.2392089504035539e-01  7.2375779246139249e-01  7.2323513539117112e-01  7.2233601237795253e-01  7.2103239095982707e-01  7.1928447185513544e-01  7.1703990587544597e-01  7.1423286317093193e-01  7.1078293897336031e-01  7.0659388955872415e-01  7.0155220693080234e-01  6.9552555940717020e-01  6.8836115085518390e-01  6.7988408843133585e-01  6.6989590251352971e-01  6.5817343814228790e-01  6.4446843865131287e-01  6.2850827027239842e-01  6.0999838629755287e-01  5.8862728514649831e-01  5.6407484606903402e-01  5.3602497422875206e-01  5.0418337301205551e-01  4.6830088518640484e-01  4.2820210787159774e-01  3.8381783863430385e-01  3.3521841576784606e-01  2.8264342483031302e-01  2.2652202110029937e-01  1.6747787478309850e-01  1.0631403091237689e-01  4.3975964807963397e-02  -1.8504655558259586e-02  -8.0078633794673282e-02  -1.3975040864085211e-01  -1.9664113118712825e-01  -2.5003506824302130e-01  -2.9940466644705732e-01  -3.4441410516926929e-01  -3.8490488801078920e-01  -4.2086915882836601e-01  -4.5241686264027298e-01  -4.7974201862899962e-01  -5.0309185818616731e-01  -5.2274096875955922e-01  -5.3897123477784636e-01  -5.5205742692662618e-01  -5.6225775322886085e-01  -5.6980846337953706e-01  -5.7492158468830146e-01  -5.7778496969787796e-01  -5.7856398337605908e-01  -5.7740430849309365e-01  -5.7443547822801500e-01  -5.6977484566022985e-01  -5.6353176929865112e-01  -5.5581183537150036e-01  -5.4672095667419407e-01  -5.3636919084333190e-01  -5.2487411500975012e-01  -5.1236358613922384e-01  -4.9897771417368625e-01  -4.8486988492028282e-01  -4.7020669671828441e-01  -4.5516672216816512e-01  -4.3993807337483271e-01  -4.2471483224523171e-01  -4.0969249872941915e-01  -3.9506269904007196e-01  -3.8100747118485268e-01  -3.6769349587470918e-01  -3.5526665931164314e-01  -3.4384731733653995e-01  -3.3352657986596784e-01  -3.2436385697532716e-01  -3.1638581303044977e-01  -3.0958677377764288e-01  -3.0393053347114363e-01  -2.9935342311968144e-01  -2.9576843223363447e-01  -2.9307012778180885e-01  -2.9114008585686535e-01  -2.8985254257721943e-01  -2.8907997876204294e-01  -2.8869837510162150e-01  -2.8859190789760897e-01  -2.8865689697219810e-01  -2.8880486422162305e-01  -2.8896461099477438e-01  -2.8908327287124025e-01  -2.8912635976093054e-01  -2.8907683616977531e-01  -2.8893333982314157e-01  -2.8870767553499294e-01  -2.8842175412908633e-01  -2.8810417214615797e-01  -2.8778664579161323e-01  -2.8750052098496215e-01  -2.8727357933892389e-01  -2.8712734541992729e-