<?xml version="1.0"?>
<VTKFile type="UnstructuredGrid"  version="0.1"  >
<UnstructuredGrid>
<Piece  NumberOfPoints="10201" NumberOfCells="20000">
<Points>
<DataArray  type="Float64"  NumberOfComponents="3"  format="ascii">0 0 0  0.25 0 0  0.5 0 0  0.75 0 0  1 0 0  1.25 0 0  1.5 0 0  1.75 0 0  2 0 0  2.25 0 0  2.5 0 0  2.75 0 0  3 0 0  3.25 0 0  3.5 0 0  3.75 0 0  4 0 0  4.25 0 0  4.5 0 0  4.75 0 0  5 0 0  5.25 0 0  5.5 0 0  5.75 0 0  6 0 0  6.25 0 0  6.5 0 0  6.75 0 0  7 0 0  7.25 0 0  7.5 0 0  7.75 0 0  8 0 0  8.25 0 0  8.5 0 0  8.75 0 0  9 0 0  9.25 0 0  9.5 0 0  9.75 0 0  10 0 0  10.25 0 0  10.5 0 0  10.75 0 0  11 0 0  11.25 0 0  11.5 0 0  11.75 0 0  12 0 0  12.25 0 0  12.5 0 0  12.75 0 0  13 0 0  13.25 0 0  13.5 0 0  13.75 0 0  14 0 0  14.25 0 0  14.5 0 0  14.75 0 0  15 0 0  15.25 0 0  15.5 0 0  15.75 0 0  16 0 0  16.25 0 0  16.5 0 0  16.75 0 0  17 0 0  17.25 0 0  17.5 0 0  17.75 0 0  18 0 0  18.25 0 0  18.5 0 0  18.75 0 0  19 0 0  19.25 0 0  19.5 0 0  19.75 0 0  20 0 0  20.25 0 0  20.5 0 0  20.75 0 0  21 0 0  21.25 0 0  21.5 0 0  21.75 0 0  22 0 0  22.25 0 0  22.5 0 0  22.75 0 0  23 0 0  23.25 0 0  23.5 0 0  23.75 0 0  24 0 0  24.25 0 0  24.5 0 0  24.75 0 0  25 0 0  0 0.25 0  0.25 0.25 0  0.5 0.25 0  0.75 0.25 0  1 0.25 0  1.25 0.25 0  1.5 0.25 0  1.75 0.25 0  2 0.25 0  2.25 0.25 0  2.5 0.25 0  2.75 0.25 0  3 0.25 0  3.25 0.25 0  3.5 0.25 0  3.75 0.25 0  4 0.25 0  4.25 0.25 0  4.5 0.25 0  4.75 0.25 0  5 0.25 0  5.25 0.25 0  5.5 0.25 0  5.75 0.25 0  6 0.25 0  6.25 0.25 0  6.5 0.25 0  6.75 0.25 0  7 0.25 0  7.25 0.25 0  7.5 0.25 0  7.75 0.25 0  8 0.25 0  8.25 0.25 0  8.5 0.25 0  8.75 0.25 0  9 0.25 0  9.25 0.25 0  9.5 0.25 0  9.75 0.25 0  10 0.25 0  10.25 0.25 0  10.5 0.25 0  10.75 0.25 0  11 0.25 0  11.25 0.25 0  11.5 0.25 0  11.75 0.25 0  12 0.25 0  12.25 0.25 0  12.5 0.25 0  12.75 0.25 0  13 0.25 0  13.25 0.25 0  13.5 0.25 0  13.75 0.25 0  14 0.25 0  14.25 0.25 0  14.5 0.25 0  14.75 0.25 0  15 0.25 0  15.25 0.25 0  15.5 0.25 0  15.75 0.25 0  16 0.25 0  16.25 0.25 0  16.5 0.25 0  16.75 0.25 0  17 0.25 0  17.25 0.25 0  17.5 0.25 0  17.75 0.25 0  18 0.25 0  18.25 0.25 0  18.5 0.25 0  18.75 0.25 0  19 0.25 0  19.25 0.25 0  19.5 0.25 0  19.75 0.25 0  20 0.25 0  20.25 0.25 0  20.5 0.25 0  20.75 0.25 0  21 0.25 0  21.25 0.25 0  21.5 0.25 0  21.75 0.25 0  22 0.25 0  22.25 0.25 0  22.5 0.25 0  22.75 0.25 0  23 0.25 0  23.25 0.25 0  23.5 0.25 0  23.75 0.25 0  24 0.25 0  24.25 0.25 0  24.5 0.25 0  24.75 0.25 0  25 0.25 0  0 0.5 0  0.25 0.5 0  0.5 0.5 0  0.75 0.5 0  1 0.5 0  1.25 0.5 0  1.5 0.5 0  1.75 0.5 0  2 0.5 0  2.25 0.5 0  2.5 0.5 0  2.75 0.5 0  3 0.5 0  3.25 0.5 0  3.5 0.5 0  3.75 0.5 0  4 0.5 0  4.25 0.5 0  4.5 0.5 0  4.75 0.5 0  5 0.5 0  5.25 0.5 0  5.5 0.5 0  5.75 0.5 0  6 0.5 0  6.25 0.5 0  6.5 0.5 0  6.75 0.5 0  7 0.5 0  7.25 0.5 0  7.5 0.5 0  7.75 0.5 0  8 0.5 0  8.25 0.5 0  8.5 0.5 0  8.75 0.5 0  9 0.5 0  9.25 0.5 0  9.5 0.5 0  9.75 0.5 0  10 0.5 0  10.25 0.5 0  10.5 0.5 0  10.75 0.5 0  11 0.5 0  11.25 0.5 0  11.5 0.5 0  11.75 0.5 0  12 0.5 0  12.25 0.5 0  12.5 0.5 0  12.75 0.5 0  13 0.5 0  13.25 0.5 0  13.5 0.5 0  13.75 0.5 0  14 0.5 0  14.25 0.5 0  14.5 0.5 0  14.75 0.5 0  15 0.5 0  15.25 0.5 0  15.5 0.5 0  15.75 0.5 0  16 0.5 0  16.25 0.5 0  16.5 0.5 0  16.75 0.5 0  17 0.5 0  17.25 0.5 0  17.5 0.5 0  17.75 0.5 0  18 0.5 0  18.25 0.5 0  18.5 0.5 0  18.75 0.5 0  19 0.5 0  19.25 0.5 0  19.5 0.5 0  19.75 0.5 0  20 0.5 0  20.25 0.5 0  20.5 0.5 0  20.75 0.5 0  21 0.5 0  21.25 0.5 0  21.5 0.5 0  21.75 0.5 0  22 0.5 0  22.25 0.5 0  22.5 0.5 0  22.75 0.5 0  23 0.5 0  23.25 0.5 0  23.5 0.5 0  23.75 0.5 0  24 0.5 0  24.25 0.5 0  24.5 0.5 0  24.75 0.5 0  25 0.5 0  0 0.75 0  0.25 0.75 0  0.5 0.75 0  0.75 0.75 0  1 0.75 0  1.25 0.75 0  1.5 0.75 0  1.75 0.75 0  2 0.75 0  2.25 0.75 0  2.5 0.75 0  2.75 0.75 0  3 0.75 0  3.25 0.75 0  3.5 0.75 0  3.75 0.75 0  4 0.75 0  4.25 0.75 0  4.5 0.75 0  4.75 0.75 0  5 0.75 0  5.25 0.75 0  5.5 0.75 0  5.75 0.75 0  6 0.75 0  6.25 0.75 0  6.5 0.75 0  6.75 0.75 0  7 0.75 0  7.25 0.75 0  7.5 0.75 0  7.75 0.75 0  8 0.75 0  8.25 0.75 0  8.5 0.75 0  8.75 0.75 0  9 0.75 0  9.25 0.75 0  9.5 0.75 0  9.75 0.75 0  10 0.75 0  10.25 0.75 0  10.5 0.75 0  10.75 0.75 0  11 0.75 0  11.25 0.75 0  11.5 0.75 0  11.75 0.75 0  12 0.75 0  12.25 0.75 0  12.5 0.75 0  12.75 0.75 0  13 0.75 0  13.25 0.75 0  13.5 0.75 0  13.75 0.75 0  14 0.75 0  14.25 0.75 0  14.5 0.75 0  14.75 0.75 0  15 0.75 0  15.25 0.75 0  15.5 0.75 0  15.75 0.75 0  16 0.75 0  16.25 0.75 0  16.5 0.75 0  16.75 0.75 0  17 0.75 0  17.25 0.75 0  17.5 0.75 0  17.75 0.75 0  18 0.75 0  18.25 0.75 0  18.5 0.75 0  18.75 0.75 0  19 0.75 0  19.25 0.75 0  19.5 0.75 0  19.75 0.75 0  20 0.75 0  20.25 0.75 0  20.5 0.75 0  20.75 0.75 0  21 0.75 0  21.25 0.75 0  21.5 0.75 0  21.75 0.75 0  22 0.75 0  22.25 0.75 0  22.5 0.75 0  22.75 0.75 0  23 0.75 0  23.25 0.75 0  23.5 0.75 0  23.75 0.75 0  24 0.75 0  24.25 0.75 0  24.5 0.75 0  24.75 0.75 0  25 0.75 0  0 1 0  0.25 1 0  0.5 1 0  0.75 1 0  1 1 0  1.25 1 0  1.5 1 0  1.75 1 0  2 1 0  2.25 1 0  2.5 1 0  2.75 1 0  3 1 0  3.25 1 0  3.5 1 0  3.75 1 0  4 1 0  4.25 1 0  4.5 1 0  4.75 1 0  5 1 0  5.25 1 0  5.5 1 0  5.75 1 0  6 1 0  6.25 1 0  6.5 1 0  6.75 1 0  7 1 0  7.25 1 0  7.5 1 0  7.75 1 0  8 1 0  8.25 1 0  8.5 1 0  8.75 1 0  9 1 0  9.25 1 0  9.5 1 0  9.75 1 0  10 1 0  10.25 1 0  10.5 1 0  10.75 1 0  11 1 0  11.25 1 0  11.5 1 0  11.75 1 0  12 1 0  12.25 1 0  12.5 1 0  12.75 1 0  13 1 0  13.25 1 0  13.5 1 0  13.75 1 0  14 1 0  14.25 1 0  14.5 1 0  14.75 1 0  15 1 0  15.25 1 0  15.5 1 0  15.75 1 0  16 1 0  16.25 1 0  16.5 1 0  16.75 1 0  17 1 0  17.25 1 0  17.5 1 0  17.75 1 0  18 1 0  18.25 1 0  18.5 1 0  18.75 1 0  19 1 0  19.25 1 0  19.5 1 0  19.75 1 0  20 1 0  20.25 1 0  20.5 1 0  20.75 1 0  21 1 0  21.25 1 0  21.5 1 0  21.75 1 0  22 1 0  22.25 1 0  22.5 1 0  22.75 1 0  23 1 0  23.25 1 0  23.5 1 0  23.75 1 0  24 1 0  24.25 1 0  24.5 1 0  24.75 1 0  25 1 0  0 1.25 0  0.25 1.25 0  0.5 1.25 0  0.75 1.25 0  1 1.25 0  1.25 1.25 0  1.5 1.25 0  1.75 1.25 0  2 1.25 0  2.25 1.25 0  2.5 1.25 0  2.75 1.25 0  3 1.25 0  3.25 1.25 0  3.5 1.25 0  3.75 1.25 0  4 1.25 0  4.25 1.25 0  4.5 1.25 0  4.75 1.25 0  5 1.25 0  5.25 1.25 0  5.5 1.25 0  5.75 1.25 0  6 1.25 0  6.25 1.25 0  6.5 1.25 0  6.75 1.25 0  7 1.25 0  7.25 1.25 0  7.5 1.25 0  7.75 1.25 0  8 1.25 0  8.25 1.25 0  8.5 1.25 0  8.75 1.25 0  9 1.25 0  9.25 1.25 0  9.5 1.25 0  9.75 1.25 0  10 1.25 0  10.25 1.25 0  10.5 1.25 0  10.75 1.25 0  11 1.25 0  11.25 1.25 0  11.5 1.25 0  11.75 1.25 0  12 1.25 0  12.25 1.25 0  12.5 1.25 0  12.75 1.25 0  13 1.25 0  13.25 1.25 0  13.5 1.25 0  13.75 1.25 0  14 1.25 0  14.25 1.25 0  14.5 1.25 0  14.75 1.25 0  15 1.25 0  15.25 1.25 0  15.5 1.25 0  15.75 1.25 0  16 1.25 0  16.25 1.25 0  16.5 1.25 0  16.75 1.25 0  17 1.25 0  17.25 1.25 0  17.5 1.25 0  17.75 1.25 0  18 1.25 0  18.25 1.25 0  18.5 1.25 0  18.75 1.25 0  19 1.25 0  19.25 1.25 0  19.5 1.25 0  19.75 1.25 0  20 1.25 0  20.25 1.25 0  20.5 1.25 0  20.75 1.25 0  21 1.25 0  21.25 1.25 0  21.5 1.25 0  21.75 1.25 0  22 1.25 0  22.25 1.25 0  22.5 1.25 0  22.75 1.25 0  23 1.25 0  23.25 1.25 0  23.5 1.25 0  23.75 1.25 0  24 1.25 0  24.25 1.25 0  24.5 1.25 0  24.75 1.25 0  25 1.25 0  0 1.5 0  0.25 1.5 0  0.5 1.5 0  0.75 1.5 0  1 1.5 0  1.25 1.5 0  1.5 1.5 0  1.75 1.5 0  2 1.5 0  2.25 1.5 0  2.5 1.5 0  2.75 1.5 0  3 1.5 0  3.25 1.5 0  3.5 1.5 0  3.75 1.5 0  4 1.5 0  4.25 1.5 0  4.5 1.5 0  4.75 1.5 0  5 1.5 0  5.25 1.5 0  5.5 1.5 0  5.75 1.5 0  6 1.5 0  6.25 1.5 0  6.5 1.5 0  6.75 1.5 0  7 1.5 0  7.25 1.5 0  7.5 1.5 0  7.75 1.5 0  8 1.5 0  8.25 1.5 0  8.5 1.5 0  8.75 1.5 0  9 1.5 0  9.25 1.5 0  9.5 1.5 0  9.75 1.5 0  10 1.5 0  10.25 1.5 0  10.5 1.5 0  10.75 1.5 0  11 1.5 0  11.25 1.5 0  11.5 1.5 0  11.75 1.5 0  12 1.5 0  12.25 1.5 0  12.5 1.5 0  12.75 1.5 0  13 1.5 0  13.25 1.5 0  13.5 1.5 0  13.75 1.5 0  14 1.5 0  14.25 1.5 0  14.5 1.5 0  14.75 1.5 0  15 1.5 0  15.25 1.5 0  15.5 1.5 0  15.75 1.5 0  16 1.5 0  16.25 1.5 0  16.5 1.5 0  16.75 1.5 0  17 1.5 0  17.25 1.5 0  17.5 1.5 0  17.75 1.5 0  18 1.5 0  18.25 1.5 0  18.5 1.5 0  18.75 1.5 0  19 1.5 0  19.25 1.5 0  19.5 1.5 0  19.75 1.5 0  20 1.5 0  20.25 1.5 0  20.5 1.5 0  20.75 1.5 0  21 1.5 0  21.25 1.5 0  21.5 1.5 0  21.75 1.5 0  22 1.5 0  22.25 1.5 0  22.5 1.5 0  22.75 1.5 0  23 1.5 0  23.25 1.5 0  23.5 1.5 0  23.75 1.5 0  24 1.5 0  24.25 1.5 0  24.5 1.5 0  24.75 1.5 0  25 1.5 0  0 1.75 0  0.25 1.75 0  0.5 1.75 0  0.75 1.75 0  1 1.75 0  1.25 1.75 0  1.5 1.75 0  1.75 1.75 0  2 1.75 0  2.25 1.75 0  2.5 1.75 0  2.75 1.75 0  3 1.75 0  3.25 1.75 0  3.5 1.75 0  3.75 1.75 0  4 1.75 0  4.25 1.75 0  4.5 1.75 0  4.75 1.75 0  5 1.75 0  5.25 1.75 0  5.5 1.75 0  5.75 1.75 0  6 1.75 0  6.25 1.75 0  6.5 1.75 0  6.75 1.75 0  7 1.75 0  7.25 1.75 0  7.5 1.75 0  7.75 1.75 0  8 1.75 0  8.25 1.75 0  8.5 1.75 0  8.75 1.75 0  9 1.75 0  9.25 1.75 0  9.5 1.75 0  9.75 1.75 0  10 1.75 0  10.25 1.75 0  10.5 1.75 0  10.75 1.75 0  11 1.75 0  11.25 1.75 0  11.5 1.75 0  11.75 1.75 0  12 1.75 0  12.25 1.75 0  12.5 1.75 0  12.75 1.75 0  13 1.75 0  13.25 1.75 0  13.5 1.75 0  13.75 1.75 0  14 1.75 0  14.25 1.75 0  14.5 1.75 0  14.75 1.75 0  15 1.75 0  15.25 1.75 0  15.5 1.75 0  15.75 1.75 0  16 1.75 0  16.25 1.75 0  16.5 1.75 0  16.75 1.75 0  17 1.75 0  17.25 1.75 0  17.5 1.75 0  17.75 1.75 0  18 1.75 0  18.25 1.75 0  18.5 1.75 0  18.75 1.75 0  19 1.75 0  19.25 1.75 0  19.5 1.75 0  19.75 1.75 0  20 1.75 0  20.25 1.75 0  20.5 1.75 0  20.75 1.75 0  21 1.75 0  21.25 1.75 0  21.5 1.75 0  21.75 1.75 0  22 1.75 0  22.25 1.75 0  22.5 1.75 0  22.75 1.75 0  23 1.75 0  23.25 1.75 0  23.5 1.75 0  23.75 1.75 0  24 1.75 0  24.25 1.75 0  24.5 1.75 0  24.75 1.75 0  25 1.75 0  0 2 0  0.25 2 0  0.5 2 0  0.75 2 0  1 2 0  1.25 2 0  1.5 2 0  1.75 2 0  2 2 0  2.25 2 0  2.5 2 0  2.75 2 0  3 2 0  3.25 2 0  3.5 2 0  3.75 2 0  4 2 0  4.25 2 0  4.5 2 0  4.75 2 0  5 2 0  5.25 2 0  5.5 2 0  5.75 2 0  6 2 0  6.25 2 0  6.5 2 0  6.75 2 0  7 2 0  7.25 2 0  7.5 2 0  7.75 2 0  8 2 0  8.25 2 0  8.5 2 0  8.75 2 0  9 2 0  9.25 2 0  9.5 2 0  9.75 2 0  10 2 0  10.25 2 0  10.5 2 0  10.75 2 0  11 2 0  11.25 2 0 
[...]
<PointData  Scalars="f_23"> 
<DataArray  type="Float64"  Name="f_23"  format="ascii">7.3874222028805481e-01  7.3105703773770325e-01  7.1372588777019508e-01  6.8505119885850596e-01  6.4353220995289107e-01  5.8759670821546572e-01  5.1579852950934124e-01  4.2723385834376254e-01  3.2207383995349209e-01  2.0206645553251323e-01  7.0792340298013151e-02  -6.6530497071269248e-02  -2.0374962090009130e-01  -3.3480664970966978e-01  -4.5473454916526634e-01  -5.6028948821024893e-01  -6.5008160044055485e-01  -7.2429326395199689e-01  -7.8419051267540762e-01  -8.3162173192380673e-01  -8.6861863567950348e-01  -8.9713412084785915e-01  -9.1890163213963760e-01  -9.3538178570732877e-01  -9.4776231963318647e-01  -9.5698553366834915e-01  -9.6378643195357827e-01  -9.6873199538077537e-01  -9.7225686714283477e-01  -9.7469364125782032e-01  -9.7629750382078340e-01  -9.7726570728082218e-01  -9.7775262260021978e-01  -9.7788114168274454e-01  -9.7775112627847183e-01  -9.7744549190988395e-01  -9.7703441189862572e-01  -9.7657804202172249e-01  -9.7612810371369463e-01  -9.7572861975729008e-01  -9.7541606465984865e-01  -9.7521916499868744e-01  -9.7515855614248748e-01  -9.7524646594027908e-01  -9.7548655085224290e-01  -9.7587395606392202e-01  -9.7639561130688268e-01  -9.7703071277340603e-01  -9.7775128307440173e-01  -9.7852264863070915e-01  -9.7930362752072730e-01  -9.8004617750330014e-01  -9.8069420689329567e-01  -9.8118118994832737e-01  -9.8142614030065434e-01  -9.8132736552769195e-01  -9.8075323719334295e-01  -9.7952894942525925e-01  -9.7741789884489327e-01  -9.7409591376064841e-01  -9.6911615362314874e-01  -9.6186225613947407e-01  -9.5148759667759242e-01  -9.3684007707569628e-01  -9.1637600718887391e-01  -8.8807549458587343e-01  -8.4938798836047780e-01  -7.9726188666911524e-01  -7.2834248992461326e-01  -6.3943997048859713e-01  -5.2833311218023138e-01  -3.9483376211272880e-01  -2.4178650014484585e-01  -7.5451995408860967e-02  9.5210550059167343e-02  2.6033594236196211e-01  4.1132532118731391e-01  5.4245028208843171e-01  6.5133997548619404e-01  7.3846649110121743e-01  8.0614122878715533e-01  8.5751677043944441e-01  8.9585615436391997e-01  9.2411391624565431e-01  9.4476084274514416e-01  9.5975973196640507e-01  9.7061696039666523e-01  9.7846166434842607e-01  9.8412658514669504e-01  9.8821906290715811e-01  9.9117869244260515e-01  9.9332202295279048e-01  9.9487620233722163e-01  9.9600380522221288e-01  9.9682090395198497e-01  9.9741008459609659e-01  9.9782973266094332e-01  9.9812057441739399e-01  9.9831015954394475e-01  9.9841563092391206e-01  9.9844438300866833e-01  7.2751877439461821e-01  7.2142197528044893e-01  7.0429382261460305e-01  6.7544543274114766e-01  6.3363111460737986e-01  5.7738504579086569e-01  5.0534469486588462e-01  4.1668818358237331e-01  3.1165868451643103e-01  1.9204836710689874e-01  6.1438633498102427e-02  -7.4998020661065035e-02  -2.1118766487476459e-01  -3.4116066605634515e-01  -4.6002831890875695e-01  -5.6460360114754915e-01  -6.5353030477008112e-01  -7.2700496659846192e-01  -7.8629346871119976e-01  -8.3323467587603950e-01  -8.6984556636430932e-01  -8.9806230483809935e-01  -9.1960185358464497e-01  -9.3590994190064614e-01  -9.4816163813653909e-01  -9.5728891001273841e-01  -9.6401859437269299e-01  -9.6891136036478076e-01  -9.7239705117768183e-01  -9.7480465010002804e-01  -9.7638664551651577e-01  -9.7733828152693669e-01  -9.7781243592706701e-01  -9.7793089083535367e-01  -9.7779268409803155e-01  -9.7748012240166782e-01  -9.7706293455639537e-01  -9.7660095996422114e-01  -9.7614570570445813e-01  -9.7574106261744276e-01  -9.7542343985897950e-01  -9.7522155126411336e-01  -9.7515605871389899e-01  -9.7523924254658012e-01  -9.7547482448841616e-01  -9.7585801503437930e-01  -9.7637579757429238e-01  -9.7700740019254784e-01  -9.7772484740661036e-01  -9.7849343118804988e-01  -9.7927189381490176e-01  -9.8001207138030944e-01  -9.8065769938937664e-01  -9.8114202061913636e-01  -9.8138374721234101e-01  -9.8128079869527718e-01  -9.8070104943524106e-01  -9.7946905920350658e-01  -9.7734742330449176e-01  -9.7401097992066688e-01  -9.6901171685731258e-01  -9.6173199618204575e-01  -9.5132403357934281e-01  -9.3663516182866746e-01  -9.1612258462539053e-01  -8.8777014291739320e-01  -8.4903562070097816e-01  -7.9688178931620857e-01  -7.2797374923398539e-01  -6.3914163642067368e-01  -5.2817282486436723e-01  -3.9486197935428191e-01  -2.4200469710631697e-01  -7.5796028508611085e-02  9.4852592950346593e-02  2.6007623281371534e-01  4.1122981904834122e-01  5.4252243982941695e-01  6.5153710411851451e-01  7.3872943859426288e-01  8.0641792904616705e-01  8.5777256455967243e-01  8.9607375470698725e-01  9.2428867824077598e-01  9.4489546945949210e-01  9.5986022531452742e-01  9.7069011759887602e-01  9.7851378935280386e-01  9.8416297400723662e-01  9.8824391203264028e-01  9.9119520300669106e-01  9.9333257377687723e-01  9.9488252777243158e-01  9.9600715137105877e-01  9.9682215578490241e-01  9.9740986601746162e-01  9.9782848764116339e-01  9.9811864892817903e-01  9.9830795118172333e-01  9.9841409423873229e-01  9.9844726620176716e-01  6.9940049168745588e-01  6.9351246068843353e-01  6.7615392597845858e-01  6.4669050259149585e-01  6.0402792982120335e-01  5.4686995327712451e-01  4.7405209206929633e-01  3.8497745021269730e-01  2.8011480692203600e-01  1.6143441577579942e-01  3.2593345391403891e-02  -1.0129896149824298e-01  -2.3436527706398813e-01  -3.6091671482340498e-01  -4.7635666101829088e-01  -5.7773762502410231e-01  -6.6385686346461970e-01  -7.3497719078794665e-01  -7.9236308130291311e-01  -8.3781016188125079e-01  -8.7327295749568790e-01  -9.0062161677766051e-01  -9.2151239372566296e-01  -9.3733948449725180e-01  -9.4923639132747584e-01  -9.5810268342403970e-01  -9.6464052812636236e-01  -9.6939210630545058e-01  -9.7277354958662743e-01  -9.7510373709489517e-01  -9.7662773576267448e-01  -9.7753534394817920e-01  -9.7797544148898374e-01  -9.7806687301169504e-01  -9.7790651908235759e-01  -9.7757510870850239e-01  -9.7714123000802877e-01  -9.7666391728098079e-01  -9.7619413506400177e-01  -9.7577543983745907e-01  -9.7544407170645853e-01  -9.7522870439111065e-01  -9.7515005555275269e-01  -9.7522052588249630e-01  -9.7544399205165588e-01  -9.7581582595278082e-01  -9.7632315349222021e-01  -9.7694530488455344e-01  -9.7765434943392282e-01  -9.7841555430476967e-01  -9.7918755930049994e-01  -9.7992201526214906e-01  -9.8056238574452170e-01  -9.8104155001428806e-01  -9.8127775712430798e-01  -9.8116835079980769e-01  -9.8058049745890363e-01  -9.7933789141503325e-01  -9.7720207708266282e-01  -9.7384663456513176e-01  -9.6882208871287423e-01  -9.6150919258709533e-01  -9.5105857499323443e-01  -9.3631635692283632e-01  -9.1573952894975252e-01  -8.8731366078199481e-01  -8.4850137237234935e-01  -7.9627434134655140e-01  -7.2731049060792630e-01  -6.3845415757192081e-01  -5.2750266097066845e-01  -3.9424916727675624e-01  -2.4147245203845419e-01  -7.5340452312405284e-02  9.5258970694325845e-02  2.6046749989340467e-01  4.1162771286488614e-01  5.4292777099813638e-01  6.5193429253580215e-01  7.3909748387578234e-01  8.0673982016057399e-01  8.5803952940702399e-01  8.9628503512428093e-01  9.2444910944518921e-01  9.4501274882540420e-01  9.5994280036738233e-01  9.7074589660457733e-01  9.7854952942515450e-01  9.8418411380585180e-01  9.8825464807105989e-01  9.9119867237294179e-01  9.9333106312184571e-01  9.9487766837893621e-01  9.9600008443714427e-01  9.9681366543323202e-01  9.9740048457285169e-01  9.9781858224762376e-01  9.9810850404953444e-01  9.9829786916807661e-01  9.9840452135591362e-01  9.9843868951203052e-01  6.5236992972206276e-01  6.4634799876675686e-01  6.2841812865860258e-01  5.9796849162825716e-01  5.5405378305847919e-01  4.9560936506042663e-01  4.2177192650824552e-01  3.3229338696906596e-01  2.2798938894147805e-01  1.1109747875532117e-01  -1.4622341163755576e-02  -1.4417649524529971e-01  -2.7201246726443107e-01  -3.9289589720296703e-01  -5.0269930353030801e-01  -5.9885727811254608e-01  -6.8040866102433029e-01  -7.4771606475024521e-01  -8.0203430430934042e-01  -8.4508258951025506e-01  -8.7870944840374676e-01  -9.0467492261617788e-01  -9.2453518943457258e-01  -9.3960027762901344e-01  -9.5093632692470031e-01  -9.5939074625513099e-01  -9.6562620577425962e-01  -9.7015542139321631e-01  -9.7337275412709090e-01  -9.7558108813508415e-01  -9.7701376978184928e-01  -9.7785201275307954e-01  -9.7823840329793432e-01  -9.7828716668541582e-01  -9.7809179356263221e-01  -9.7773053482127792e-01  -9.7727018679092625e-01  -9.7676851815685350e-01  -9.7627563880626911e-01  -9.7583457598702339e-01  -9.7548129889566537e-01  -9.7524441219372782e-01  -9.7514471547870163e-01  -9.7519479450872704e-01  -9.7539876854448870e-01  -9.7575226685077476e-01  -9.7624264898939084e-01  -9.7684942238746397e-01  -9.7754475133936802e-01  -9.7829389737363825e-01  -9.7905538248814838e-01  -9.7978062139860855e-01  -9.8041272019729364e-01  -9.8088407669031497e-01  -9.8111232923025504e-01  -9.8099407109696235e-01  -9.8039556083640933e-01  -9.7913940218952633e-01  -9.7698583564819830e-01  -9.7360689467879635e-01  -9.6855130057977978e-01  -9.6119777179961396e-01  -9.5069477745252617e-01  -9.3588639728643663e-01  -9.1522814936551067e-01  -8.8670541392619751e-01  -8.4778287203831548e-01  -7.9543755945197603e-01  -7.2635673500107034e-01  -6.3739764261515541e-01  -5.2637187318282397e-01  -3.9308424472959874e-01  -2.4031829895962448e-01  -7.4238002493745847e-02  9.6279163704785911e-02  2.6138660995223156e-01  4.1243599445452284e-01  5.4362133389351863e-01  6.5251356806385707e-01  7.3956711870233871e-01  8.0710861207130213e-01  8.5831959345937026e-01  8.9649032701078146e-01  9.2459384485537810e-01  9.4511015628860473e-01  9.6000437408038863e-01  9.7078110689519970e-01  9.7856585726959733e-01  9.8418726938818923e-01  9.8824886532952372e-01  9.9118701065422654e-01  9.9331567933513332e-01  9.9486004497016600e-01  9.9598121145938101e-01  9.9679418167776968e-01  9.9738078564853117e-01  9.9779890435756713e-01  9.9808899125229522e-01  9.9827862541174073e-01  9.9838562153043808e-01  9.9842004498919557e-01  5.8471384654893055e-01  5.7849554551401072e-01  5.5985337550457415e-01  5.2826645924245386e-01  4.8299295649345175e-01  4.2327495082225569e-01  3.4864259081137811e-01  2.5928936544936892e-01  1.5644827523030602e-01  4.2649474476928947e-02  -7.8278703700757832e-02  -2.0155187812571043e-01  -3.2207549373910410e-01  -4.3521317884821520e-01  -5.3743115104989214e-01  -6.2663292430880857e-01  -7.0214285997044823e-01  -7.6443020908707582e-01  -8.1472117014136736e-01  -8.5462556703266868e-01  -8.8584829502235729e-01  -9.1000301843787912e-01  -9.2851405420331834e-01  -9.4258104740935722e-01  -9.5318201288815341e-01  -9.6109620827328768e-01  -9.6693472297138838e-01  -9.7117179248373497e-01  -9.7417333447582355e-01  -9.7622132098184944e-01  -9.7753376008380899e-01  -9.7828061773873709e-01  -9.7859622260969903e-01  -9.7858872894591220e-01  -9.7834716333975014e-01  -9.7794650555876461e-01  -9.7745117979601148e-01  -9.7691727286887942e-01  -9.7639375308279186e-01  -9.7592293524123330e-01  -9.7554041828608529e-01  -9.7527470577818098e-01  -9.7514669961799350e-01  -9.7516922925672356e-01  -9.7534673968857644e-01  -9.7567521199315788e-01  -9.7614233283844287e-01  -9.7672786850182469e-01  -9.7740413925696201e-01  -9.7813643485284385e-01  -9.7888316220750460e-01  -9.7959546986803447e-01  -9.8021604400609263e-01  -9.8067670788844086e-01  -9.8089436803217045e-01  -9.8076472068218290e-01  -9.8015294632175154e-01  -9.7888036451834026e-01  -9.7670569211815883e-01  -9.7329916256613747e-01  -9.6820739106952325e-01  -9.6080668149387971e-01  -9.5024283838831514e-01  -9.3535719805466255e-01  -9.1460281138622979e-01  -8.8596349115481032e-01  -8.4690421174138775e-01  -7.9440545095697335e-01  -7.2516246671695550e-01  -6.3604604299472423e-01  -5.2488648400160332e-01  -3.9150977353168531e-01  -2.3871777964505145e-01  -7.2683663386915190e-02  9.7719099257691969e-02  2.6266022600780781e-01  4.1351442029690272e-01  5.4449852128447640e-01  6.5320113173212435e-01  7.4008748321989193e-01  8.0748888431494881e-01  8.5858717499281034e-01  8.9667029059388936e-01  9.2470768085965172e-01  9.4517543203171939e-01  9.6003492898218978e-01  9.7078751522592766e-01  9.7855598552559953e-01  9.8416682691848045e-01  9.8822189612617628e-01  9.9115630570808844e-01  9.9328310744022152e-01  9.9482680950222202e-01  9.9594804471654819e-01  9.9676148919226049e-01  9.9734875196010087e-01  9.9776756979908754e-01  9.9805830613174629e-01  9.9824848217863715e-01  9.9835585555936768e-01  9.9839038958911530e-01  4.9519039566568396e-01  4.8883761280207261e-01  4.6956325217031986e-01  4.3700194486551869e-01  3.9068024875988433e-01  3.3021666240958936e-01  2.5560025178085277e-01  1.6750970950911076e-01  6.7598621912961704e-02  -4.1358225408184686e-02  -1.5555915998988185e-01  -2.7055106932864031e-01  -3.8181862446387249e-01  -4.8541997886213767e-01  -5.7847515823474682e-01  -6.5938117565643128e-01  -7.2774530322639541e-01  -7.8412373880529884e-01  -8.2968583426527631e-01  -8.6590126999612105e-01  -8.9430174325343359e-01  -9.1632816853303967e-01  -9.3325064544123049e-01  -9.4614017289178287e-01  -9.5587213211521849e-01  -9.6314634161801926e-01  -9.6851366331363853e-01  -9.7240330200854996e-01  -9.7514780692075542e-01  -9.7700455110187967e-01  -9.7817344931490691e-01  -9.7881116022430281e-01  -9.7904221216089049e-01  -9.7896752959959432e-01  -9.7867080298486875e-01  -9.7822308514467582e-01  -9.7768593827773309e-01  -9.7711340770598465e-01  -9.7655306529780173e-01  -9.7604634474442864e-01  -9.7562837791325285e-01  -9.7532753023804242e-01  -9.7516481756091367e-01  -9.7515336232051142e-01  -9.7529801099004176e-01  -9.7559518735579476e-01  -9.7603300021880157e-01  -9.7659156370874523e-01  -9.7724342833094069e-01  -9.7795396475242502e-01  -9.7868149136362614e-01  -9.7937688863401939e-01  -9.7998239223114769e-01  -9.8042919314992705e-01  -9.8063338396065081e-01  -9.8048966083257061e-01  -9.7986200573963322e-01  -9.7857031915573089e-01  -9.7637164641356611e-01  -9.7293425911195297e-01  -9.6780248541735547e-01  -9.6035000305655727e-01  -9.4971968990024314e-01  -9.3474979745499409e-01  -9.1389045759489618e-01  -8.8512334015237704e-01  -8.4591306471798555e-01  -7.9324302202168329e-01  -7.2381647705333951e-01  -6.3451896119937523e-01  -5.2320260983086730e-01  -3.8971983364122226e-01  -2.3689727853201442e-01  -7.0922546603896797e-02  9.9333738407506478e-02  2.6406196430683276e-01  4.1466835955114917e-01  5.4540172765527173e-01  6.5387490018192373e-01  7.4056658654511132e-01  8.0781214800155243e-01  8.5879126315118115e-01  8.9678661249639857e-01  9.2476148792569612e-01  9.4518613910524552e-01  9.6001696787134694e-01  9.7075131814555804e-01  9.7850890212858976e-01  9.8411389938809624e-01  9.8816647851715056e-01  9.9110054110755708e-01  9.9322828605203861e-01  9.9477363184376333e-01  9.9589681165411992e-01  9.9671223690405741e-01  9.9730134613543597e-01  9.9772176975969651e-01  9.9801380598585787e-01  9.9820493247910325e-01  9.9831286642782124e-01  9.9834752079590161e-01  3.8376019050194976e-01  3.7741631980492385e-01  3.5782100855036464e-01  3.2481070276408258e-01  2.7822813098729043e-01  2.1810793130561282e-01  1.4491491536611265e-01  5.9790694652678479e-02  -3.5261418544016043e-02  -1.3733617525870076e-01  -2.4279374786230887e-01  -3.4763643744679518e-01  -4.4801361607756401e-01  -5.4071358136898662e-01  -6.2350297543723066e-01  -6.9523954788965492e-01  -7.5577221364755809e-01  -8.0570525896178924e-01  -8.4611909167698129e-01  -8.7831815321561590e-01  -9.0364150860045367e-01  -9.2334208530499784e-01  -9.3852363310629117e-01  -9.5011876153254604e-01  -9.5889239373877999e-01  -9.6545866278693282e-01  -9.7030325967876352e-01  -9.7380648106156409e-01  -9.7626448968618895e-01  -9.7790772380280289e-01  -9.7891620289333092e-01  -9.7943188932385195e-01  -9.7956843896079349e-01  -9.7941871667107372e-01  -9.7906043264160825e-01  -9.7856021242705538e-01  -9.7797636927310461e-01  -9.7736061183851541e-01  -9.7675889702474050e-01  -9.7621162473743461e-01  -9.7575336480199126e-01  -9.7541230033058179e-01  -9.7520956090893895e-01  -9.7515859845544628e-01  -9.7526472596545466e-01  -9.7552489460890701e-01  -9.7592773029024327e-01  -9.7645379104858288e-01  -9.7707594633602091e-01  -9.7775972207268780e-01  -9.7846340291358136e-01  -9.7913763350784233e-01  -9.7972420801107396e-01  -9.8015367231920592e-01  -9.8034127382761915e-01  -9.8018066414428218e-01  -9.7953457563621749e-01  -9.7822143996820921e-01  -9.7599659189251664e-01  -9.7252632325250943e-01  -9.6735269013311587e-01  -9.5984680477804329e-01  -9.4914873862268012e-01  -9.3409385342964024e-01  -9.1312964954907150e-01  -8.8423605604860755e-01  -8.4487788341665215e-01  -7.9204215642042974e-01  -7.2244105812807202e-01  -6.3297591353507188e-01  -5.2152166472205774e-01  -3.8795763163613156e-01  -2.3513464374272183e-01  -6.9252599982002158e-02  1.0082437176842859e-01  2.6531165623444031e-01  4.1565069316999309e-01  5.4612415196310282e-01  6.5436884371180393e-01  7.4087502657935123e-01  8.0797939580582123e-01  8.5885678216906181e-01  8.9678245269643164e-01  9.2471207183377857e-01  9.4510921450000296e-01  9.5992494050965482e-01  9.7065255099721337e-01  9.7840881340901686e-01  9.8401582299938994e-01  9.8807230824410996e-01  9.9101119847397334e-01  9.9314405248894522e-01  9.9469437997442045e-01  9.9582216321350769e-01  9.9664166810312571e-01  9.9723425571881863e-01  9.9765752055945256e-01  9.9795174725822189e-01  9.9814440774008117e-01  9.9825321056534788e-01  9.9828805254904540e-01  2.5243101487531244e-01  2.4628572737353885e-01  2.2688750576773092e-01  1.9429137684512796e-01  1.4866581494702114e-01  9.0449960502595447e-02  2.0536802677037242e-02  -5.9561843314666268e-02  -1.4762697987318496e-01  -2.4077733692602493e-01  -3.3567607529954457e-01  -4.2887546500561829e-01  -5.1721992760545199e-01  -5.9819931197394594e-01  -6.7016195735990458e-01  -7.3235183191978359e-01  -7.8479482854003857e-01  -8.2809675351281953e-01  -8.6322009595757487e-01  -8.9128807558802559e-01  -9.1343906450499335e-01  -9.3073402897214819e-01  -9.4410816072899317e-01  -9.5435407823953122e-01  -9.6212479068111145e-01  -9.6794731986400628e-01  -9.7224080832155080e-01  -9.7533536316246994e-01  -9.7748961244349464e-01  -9.7890606106515787e-01  -9.7974398345147662e-01  -9.8012993262925918e-01  -9.8016609834949064e-01  -9.7993679317006066e-01  -9.7951333834991439e-01  -9.7895759348521216e-01  -9.7832434346023356e-01  -9.7766273263436476e-01  -9.7701692226016301e-01  -9.7642614184997512e-01  -9.7592430485216752e-01  -9.7553935840851536e-01  -9.7529253074942956e-01  -9.7519762346339522e-01  -9.7526046685132894e-01  -9.7547861470068742e-01  -9.7584130239894684e-01  -9.7632963348168866e-01  -9.7691689925541036e-01  -9.7756887802315195e-01  -9.7824390643425552e-01  -9.7889246406551478e-01  -9.7945595819378084e-01  -9.7986432971727233e-01  -9.8003201090965675e-01  -9.7985163640214989e-01  -9.7918472505847842e-01  -9.7784829929153583e-01  -9.7559608601371406e-01  -9.7209256895056206e-01  -9.6687780578087934e-01  -9.5932076091438778e-01  -9.4855931215558742e-01  -9.3342679756355385e-01  -9.1236926127467566e-01  -8.8336640778160236e-01  -8.4388505680016035e-01  -7.9091779952149155e-01  -7.2118733956286918e-01  -6.3161128483116025e-01  -5.2008570461175785e-01  -3.8651204031769665e-01  -2.3375732361140911e-01  -6.8024033577652618e-02  1.0183877922462826e-01  2.6607598876343169e-01  4.1616332513219478e-01  5.4641195392846709e-01  6.5447523143475628e-01  7.4084780890358293e-01  8.0786222742935632e-01  8.5868501057756141e-01  8.9658230001968409e-01  9.2450165680621432e-01  9.4490025185259063e-01  9.5972445132472062e-01  9.7046429876854057e-01  9.7823439950865221e-01  9.8385547423532915e-01  9.8792542034777941e-01  9.9087669926362865e-01  9.9302063729260415e-01  9.9458065897852321e-01  9.9571674921597220e-01  9.9654322449757460e-01  9.9714151819389862e-01  9.9756930146534872e-01  9.9786692843205138e-01  9.9806192556980433e-01  9.9817203625647166e-01  9.9820717098169209e-01  1.057991