<?xml version="1.0"?>
<VTKFile type="UnstructuredGrid"  version="0.1"  >
<UnstructuredGrid>
<Piece  NumberOfPoints="10201" NumberOfCells="20000">
<Points>
<DataArray  type="Float64"  NumberOfComponents="3"  format="ascii">0 0 0  0.25 0 0  0.5 0 0  0.75 0 0  1 0 0  1.25 0 0  1.5 0 0  1.75 0 0  2 0 0  2.25 0 0  2.5 0 0  2.75 0 0  3 0 0  3.25 0 0  3.5 0 0  3.75 0 0  4 0 0  4.25 0 0  4.5 0 0  4.75 0 0  5 0 0  5.25 0 0  5.5 0 0  5.75 0 0  6 0 0  6.25 0 0  6.5 0 0  6.75 0 0  7 0 0  7.25 0 0  7.5 0 0  7.75 0 0  8 0 0  8.25 0 0  8.5 0 0  8.75 0 0  9 0 0  9.25 0 0  9.5 0 0  9.75 0 0  10 0 0  10.25 0 0  10.5 0 0  10.75 0 0  11 0 0  11.25 0 0  11.5 0 0  11.75 0 0  12 0 0  12.25 0 0  12.5 0 0  12.75 0 0  13 0 0  13.25 0 0  13.5 0 0  13.75 0 0  14 0 0  14.25 0 0  14.5 0 0  14.75 0 0  15 0 0  15.25 0 0  15.5 0 0  15.75 0 0  16 0 0  16.25 0 0  16.5 0 0  16.75 0 0  17 0 0  17.25 0 0  17.5 0 0  17.75 0 0  18 0 0  18.25 0 0  18.5 0 0  18.75 0 0  19 0 0  19.25 0 0  19.5 0 0  19.75 0 0  20 0 0  20.25 0 0  20.5 0 0  20.75 0 0  21 0 0  21.25 0 0  21.5 0 0  21.75 0 0  22 0 0  22.25 0 0  22.5 0 0  22.75 0 0  23 0 0  23.25 0 0  23.5 0 0  23.75 0 0  24 0 0  24.25 0 0  24.5 0 0  24.75 0 0  25 0 0  0 0.25 0  0.25 0.25 0  0.5 0.25 0  0.75 0.25 0  1 0.25 0  1.25 0.25 0  1.5 0.25 0  1.75 0.25 0  2 0.25 0  2.25 0.25 0  2.5 0.25 0  2.75 0.25 0  3 0.25 0  3.25 0.25 0  3.5 0.25 0  3.75 0.25 0  4 0.25 0  4.25 0.25 0  4.5 0.25 0  4.75 0.25 0  5 0.25 0  5.25 0.25 0  5.5 0.25 0  5.75 0.25 0  6 0.25 0  6.25 0.25 0  6.5 0.25 0  6.75 0.25 0  7 0.25 0  7.25 0.25 0  7.5 0.25 0  7.75 0.25 0  8 0.25 0  8.25 0.25 0  8.5 0.25 0  8.75 0.25 0  9 0.25 0  9.25 0.25 0  9.5 0.25 0  9.75 0.25 0  10 0.25 0  10.25 0.25 0  10.5 0.25 0  10.75 0.25 0  11 0.25 0  11.25 0.25 0  11.5 0.25 0  11.75 0.25 0  12 0.25 0  12.25 0.25 0  12.5 0.25 0  12.75 0.25 0  13 0.25 0  13.25 0.25 0  13.5 0.25 0  13.75 0.25 0  14 0.25 0  14.25 0.25 0  14.5 0.25 0  14.75 0.25 0  15 0.25 0  15.25 0.25 0  15.5 0.25 0  15.75 0.25 0  16 0.25 0  16.25 0.25 0  16.5 0.25 0  16.75 0.25 0  17 0.25 0  17.25 0.25 0  17.5 0.25 0  17.75 0.25 0  18 0.25 0  18.25 0.25 0  18.5 0.25 0  18.75 0.25 0  19 0.25 0  19.25 0.25 0  19.5 0.25 0  19.75 0.25 0  20 0.25 0  20.25 0.25 0  20.5 0.25 0  20.75 0.25 0  21 0.25 0  21.25 0.25 0  21.5 0.25 0  21.75 0.25 0  22 0.25 0  22.25 0.25 0  22.5 0.25 0  22.75 0.25 0  23 0.25 0  23.25 0.25 0  23.5 0.25 0  23.75 0.25 0  24 0.25 0  24.25 0.25 0  24.5 0.25 0  24.75 0.25 0  25 0.25 0  0 0.5 0  0.25 0.5 0  0.5 0.5 0  0.75 0.5 0  1 0.5 0  1.25 0.5 0  1.5 0.5 0  1.75 0.5 0  2 0.5 0  2.25 0.5 0  2.5 0.5 0  2.75 0.5 0  3 0.5 0  3.25 0.5 0  3.5 0.5 0  3.75 0.5 0  4 0.5 0  4.25 0.5 0  4.5 0.5 0  4.75 0.5 0  5 0.5 0  5.25 0.5 0  5.5 0.5 0  5.75 0.5 0  6 0.5 0  6.25 0.5 0  6.5 0.5 0  6.75 0.5 0  7 0.5 0  7.25 0.5 0  7.5 0.5 0  7.75 0.5 0  8 0.5 0  8.25 0.5 0  8.5 0.5 0  8.75 0.5 0  9 0.5 0  9.25 0.5 0  9.5 0.5 0  9.75 0.5 0  10 0.5 0  10.25 0.5 0  10.5 0.5 0  10.75 0.5 0  11 0.5 0  11.25 0.5 0  11.5 0.5 0  11.75 0.5 0  12 0.5 0  12.25 0.5 0  12.5 0.5 0  12.75 0.5 0  13 0.5 0  13.25 0.5 0  13.5 0.5 0  13.75 0.5 0  14 0.5 0  14.25 0.5 0  14.5 0.5 0  14.75 0.5 0  15 0.5 0  15.25 0.5 0  15.5 0.5 0  15.75 0.5 0  16 0.5 0  16.25 0.5 0  16.5 0.5 0  16.75 0.5 0  17 0.5 0  17.25 0.5 0  17.5 0.5 0  17.75 0.5 0  18 0.5 0  18.25 0.5 0  18.5 0.5 0  18.75 0.5 0  19 0.5 0  19.25 0.5 0  19.5 0.5 0  19.75 0.5 0  20 0.5 0  20.25 0.5 0  20.5 0.5 0  20.75 0.5 0  21 0.5 0  21.25 0.5 0  21.5 0.5 0  21.75 0.5 0  22 0.5 0  22.25 0.5 0  22.5 0.5 0  22.75 0.5 0  23 0.5 0  23.25 0.5 0  23.5 0.5 0  23.75 0.5 0  24 0.5 0  24.25 0.5 0  24.5 0.5 0  24.75 0.5 0  25 0.5 0  0 0.75 0  0.25 0.75 0  0.5 0.75 0  0.75 0.75 0  1 0.75 0  1.25 0.75 0  1.5 0.75 0  1.75 0.75 0  2 0.75 0  2.25 0.75 0  2.5 0.75 0  2.75 0.75 0  3 0.75 0  3.25 0.75 0  3.5 0.75 0  3.75 0.75 0  4 0.75 0  4.25 0.75 0  4.5 0.75 0  4.75 0.75 0  5 0.75 0  5.25 0.75 0  5.5 0.75 0  5.75 0.75 0  6 0.75 0  6.25 0.75 0  6.5 0.75 0  6.75 0.75 0  7 0.75 0  7.25 0.75 0  7.5 0.75 0  7.75 0.75 0  8 0.75 0  8.25 0.75 0  8.5 0.75 0  8.75 0.75 0  9 0.75 0  9.25 0.75 0  9.5 0.75 0  9.75 0.75 0  10 0.75 0  10.25 0.75 0  10.5 0.75 0  10.75 0.75 0  11 0.75 0  11.25 0.75 0  11.5 0.75 0  11.75 0.75 0  12 0.75 0  12.25 0.75 0  12.5 0.75 0  12.75 0.75 0  13 0.75 0  13.25 0.75 0  13.5 0.75 0  13.75 0.75 0  14 0.75 0  14.25 0.75 0  14.5 0.75 0  14.75 0.75 0  15 0.75 0  15.25 0.75 0  15.5 0.75 0  15.75 0.75 0  16 0.75 0  16.25 0.75 0  16.5 0.75 0  16.75 0.75 0  17 0.75 0  17.25 0.75 0  17.5 0.75 0  17.75 0.75 0  18 0.75 0  18.25 0.75 0  18.5 0.75 0  18.75 0.75 0  19 0.75 0  19.25 0.75 0  19.5 0.75 0  19.75 0.75 0  20 0.75 0  20.25 0.75 0  20.5 0.75 0  20.75 0.75 0  21 0.75 0  21.25 0.75 0  21.5 0.75 0  21.75 0.75 0  22 0.75 0  22.25 0.75 0  22.5 0.75 0  22.75 0.75 0  23 0.75 0  23.25 0.75 0  23.5 0.75 0  23.75 0.75 0  24 0.75 0  24.25 0.75 0  24.5 0.75 0  24.75 0.75 0  25 0.75 0  0 1 0  0.25 1 0  0.5 1 0  0.75 1 0  1 1 0  1.25 1 0  1.5 1 0  1.75 1 0  2 1 0  2.25 1 0  2.5 1 0  2.75 1 0  3 1 0  3.25 1 0  3.5 1 0  3.75 1 0  4 1 0  4.25 1 0  4.5 1 0  4.75 1 0  5 1 0  5.25 1 0  5.5 1 0  5.75 1 0  6 1 0  6.25 1 0  6.5 1 0  6.75 1 0  7 1 0  7.25 1 0  7.5 1 0  7.75 1 0  8 1 0  8.25 1 0  8.5 1 0  8.75 1 0  9 1 0  9.25 1 0  9.5 1 0  9.75 1 0  10 1 0  10.25 1 0  10.5 1 0  10.75 1 0  11 1 0  11.25 1 0  11.5 1 0  11.75 1 0  12 1 0  12.25 1 0  12.5 1 0  12.75 1 0  13 1 0  13.25 1 0  13.5 1 0  13.75 1 0  14 1 0  14.25 1 0  14.5 1 0  14.75 1 0  15 1 0  15.25 1 0  15.5 1 0  15.75 1 0  16 1 0  16.25 1 0  16.5 1 0  16.75 1 0  17 1 0  17.25 1 0  17.5 1 0  17.75 1 0  18 1 0  18.25 1 0  18.5 1 0  18.75 1 0  19 1 0  19.25 1 0  19.5 1 0  19.75 1 0  20 1 0  20.25 1 0  20.5 1 0  20.75 1 0  21 1 0  21.25 1 0  21.5 1 0  21.75 1 0  22 1 0  22.25 1 0  22.5 1 0  22.75 1 0  23 1 0  23.25 1 0  23.5 1 0  23.75 1 0  24 1 0  24.25 1 0  24.5 1 0  24.75 1 0  25 1 0  0 1.25 0  0.25 1.25 0  0.5 1.25 0  0.75 1.25 0  1 1.25 0  1.25 1.25 0  1.5 1.25 0  1.75 1.25 0  2 1.25 0  2.25 1.25 0  2.5 1.25 0  2.75 1.25 0  3 1.25 0  3.25 1.25 0  3.5 1.25 0  3.75 1.25 0  4 1.25 0  4.25 1.25 0  4.5 1.25 0  4.75 1.25 0  5 1.25 0  5.25 1.25 0  5.5 1.25 0  5.75 1.25 0  6 1.25 0  6.25 1.25 0  6.5 1.25 0  6.75 1.25 0  7 1.25 0  7.25 1.25 0  7.5 1.25 0  7.75 1.25 0  8 1.25 0  8.25 1.25 0  8.5 1.25 0  8.75 1.25 0  9 1.25 0  9.25 1.25 0  9.5 1.25 0  9.75 1.25 0  10 1.25 0  10.25 1.25 0  10.5 1.25 0  10.75 1.25 0  11 1.25 0  11.25 1.25 0  11.5 1.25 0  11.75 1.25 0  12 1.25 0  12.25 1.25 0  12.5 1.25 0  12.75 1.25 0  13 1.25 0  13.25 1.25 0  13.5 1.25 0  13.75 1.25 0  14 1.25 0  14.25 1.25 0  14.5 1.25 0  14.75 1.25 0  15 1.25 0  15.25 1.25 0  15.5 1.25 0  15.75 1.25 0  16 1.25 0  16.25 1.25 0  16.5 1.25 0  16.75 1.25 0  17 1.25 0  17.25 1.25 0  17.5 1.25 0  17.75 1.25 0  18 1.25 0  18.25 1.25 0  18.5 1.25 0  18.75 1.25 0  19 1.25 0  19.25 1.25 0  19.5 1.25 0  19.75 1.25 0  20 1.25 0  20.25 1.25 0  20.5 1.25 0  20.75 1.25 0  21 1.25 0  21.25 1.25 0  21.5 1.25 0  21.75 1.25 0  22 1.25 0  22.25 1.25 0  22.5 1.25 0  22.75 1.25 0  23 1.25 0  23.25 1.25 0  23.5 1.25 0  23.75 1.25 0  24 1.25 0  24.25 1.25 0  24.5 1.25 0  24.75 1.25 0  25 1.25 0  0 1.5 0  0.25 1.5 0  0.5 1.5 0  0.75 1.5 0  1 1.5 0  1.25 1.5 0  1.5 1.5 0  1.75 1.5 0  2 1.5 0  2.25 1.5 0  2.5 1.5 0  2.75 1.5 0  3 1.5 0  3.25 1.5 0  3.5 1.5 0  3.75 1.5 0  4 1.5 0  4.25 1.5 0  4.5 1.5 0  4.75 1.5 0  5 1.5 0  5.25 1.5 0  5.5 1.5 0  5.75 1.5 0  6 1.5 0  6.25 1.5 0  6.5 1.5 0  6.75 1.5 0  7 1.5 0  7.25 1.5 0  7.5 1.5 0  7.75 1.5 0  8 1.5 0  8.25 1.5 0  8.5 1.5 0  8.75 1.5 0  9 1.5 0  9.25 1.5 0  9.5 1.5 0  9.75 1.5 0  10 1.5 0  10.25 1.5 0  10.5 1.5 0  10.75 1.5 0  11 1.5 0  11.25 1.5 0  11.5 1.5 0  11.75 1.5 0  12 1.5 0  12.25 1.5 0  12.5 1.5 0  12.75 1.5 0  13 1.5 0  13.25 1.5 0  13.5 1.5 0  13.75 1.5 0  14 1.5 0  14.25 1.5 0  14.5 1.5 0  14.75 1.5 0  15 1.5 0  15.25 1.5 0  15.5 1.5 0  15.75 1.5 0  16 1.5 0  16.25 1.5 0  16.5 1.5 0  16.75 1.5 0  17 1.5 0  17.25 1.5 0  17.5 1.5 0  17.75 1.5 0  18 1.5 0  18.25 1.5 0  18.5 1.5 0  18.75 1.5 0  19 1.5 0  19.25 1.5 0  19.5 1.5 0  19.75 1.5 0  20 1.5 0  20.25 1.5 0  20.5 1.5 0  20.75 1.5 0  21 1.5 0  21.25 1.5 0  21.5 1.5 0  21.75 1.5 0  22 1.5 0  22.25 1.5 0  22.5 1.5 0  22.75 1.5 0  23 1.5 0  23.25 1.5 0  23.5 1.5 0  23.75 1.5 0  24 1.5 0  24.25 1.5 0  24.5 1.5 0  24.75 1.5 0  25 1.5 0  0 1.75 0  0.25 1.75 0  0.5 1.75 0  0.75 1.75 0  1 1.75 0  1.25 1.75 0  1.5 1.75 0  1.75 1.75 0  2 1.75 0  2.25 1.75 0  2.5 1.75 0  2.75 1.75 0  3 1.75 0  3.25 1.75 0  3.5 1.75 0  3.75 1.75 0  4 1.75 0  4.25 1.75 0  4.5 1.75 0  4.75 1.75 0  5 1.75 0  5.25 1.75 0  5.5 1.75 0  5.75 1.75 0  6 1.75 0  6.25 1.75 0  6.5 1.75 0  6.75 1.75 0  7 1.75 0  7.25 1.75 0  7.5 1.75 0  7.75 1.75 0  8 1.75 0  8.25 1.75 0  8.5 1.75 0  8.75 1.75 0  9 1.75 0  9.25 1.75 0  9.5 1.75 0  9.75 1.75 0  10 1.75 0  10.25 1.75 0  10.5 1.75 0  10.75 1.75 0  11 1.75 0  11.25 1.75 0  11.5 1.75 0  11.75 1.75 0  12 1.75 0  12.25 1.75 0  12.5 1.75 0  12.75 1.75 0  13 1.75 0  13.25 1.75 0  13.5 1.75 0  13.75 1.75 0  14 1.75 0  14.25 1.75 0  14.5 1.75 0  14.75 1.75 0  15 1.75 0  15.25 1.75 0  15.5 1.75 0  15.75 1.75 0  16 1.75 0  16.25 1.75 0  16.5 1.75 0  16.75 1.75 0  17 1.75 0  17.25 1.75 0  17.5 1.75 0  17.75 1.75 0  18 1.75 0  18.25 1.75 0  18.5 1.75 0  18.75 1.75 0  19 1.75 0  19.25 1.75 0  19.5 1.75 0  19.75 1.75 0  20 1.75 0  20.25 1.75 0  20.5 1.75 0  20.75 1.75 0  21 1.75 0  21.25 1.75 0  21.5 1.75 0  21.75 1.75 0  22 1.75 0  22.25 1.75 0  22.5 1.75 0  22.75 1.75 0  23 1.75 0  23.25 1.75 0  23.5 1.75 0  23.75 1.75 0  24 1.75 0  24.25 1.75 0  24.5 1.75 0  24.75 1.75 0  25 1.75 0  0 2 0  0.25 2 0  0.5 2 0  0.75 2 0  1 2 0  1.25 2 0  1.5 2 0  1.75 2 0  2 2 0  2.25 2 0  2.5 2 0  2.75 2 0  3 2 0  3.25 2 0  3.5 2 0  3.75 2 0  4 2 0  4.25 2 0  4.5 2 0  4.75 2 0  5 2 0  5.25 2 0  5.5 2 0  5.75 2 0  6 2 0  6.25 2 0  6.5 2 0  6.75 2 0  7 2 0  7.25 2 0  7.5 2 0  7.75 2 0  8 2 0  8.25 2 0  8.5 2 0  8.75 2 0  9 2 0  9.25 2 0  9.5 2 0  9.75 2 0  10 2 0  10.25 2 0  10.5 2 0  10.75 2 0  11 2 0  11.25 2 0 
[...]
<PointData  Scalars="f_23"> 
<DataArray  type="Float64"  Name="f_23"  format="ascii">9.5303798450907629e-01  9.5341165839745645e-01  9.5428455018636427e-01  9.5565178634133341e-01  9.5746507232439193e-01  9.5965424572636093e-01  9.6213709496523492e-01  9.6482646403489281e-01  9.6763621354462204e-01  9.7048608672157921e-01  9.7330531840938361e-01  9.7603491538632281e-01  9.7862867590415192e-01  9.8105313089622925e-01  9.8328665704045659e-01  9.8531803240756166e-01  9.8714468844497505e-01  9.8877087088880145e-01  9.9020586982731440e-01  9.9146242587645672e-01  9.9255537212083578e-01  9.9350053368057500e-01  9.9431387945821970e-01  9.9501090305656237e-01  9.9560620036858150e-01  9.9611320793539515e-01  9.9654406693324682e-01  9.9690958096123061e-01  9.9721924040223608e-01  9.9748129112952622e-01  9.9770283015373018e-01  9.9788991511966707e-01  9.9804767821771689e-01  9.9818043803843604e-01  9.9829180521264316e-01  9.9838477942177106e-01  9.9846183662952670e-01  9.9852500627082308e-01  9.9857593872436656e-01  9.9861596376583894e-01  9.9864614091047010e-01  9.9866730265515025e-01  9.9868009165762728e-01  9.9868499287038270e-01  9.9868236159789858e-01  9.9867244838002533e-01  9.9865542152767839e-01  9.9863138805274454e-01  9.9860041364151353e-01  9.9856254221772334e-01  9.9851781552374508e-01  9.9846629301248002e-01  9.9840807218472505e-01  9.9834330932514126e-01  9.9827224038530293e-01  9.9819520153906205e-01  9.9811264870288352e-01  9.9802517508645749e-01  9.9793352563693372e-01  9.9783860708853678e-01  9.9774149225629760e-01  9.9764341724672856e-01  9.9754577042441228e-01  9.9745007228825411e-01  9.9735794587772719e-01  9.9727107793316461e-01  9.9719117173972105e-01  9.9711989333603090e-01  9.9705881349242342e-01  9.9700934847618983e-01  9.9697270303936869e-01  9.9694981921688453e-01  9.9694133436365817e-01  9.9694755137729363e-01  9.9696842327704605e-01  9.9700355330794421e-01  9.9705221061060589e-01  9.9711336036015230e-01  9.9718570625105907e-01  9.9726774239291438e-01  9.9735781115958899e-01  9.9745416333758474e-01  9.9755501704384031e-01  9.9765861228782904e-01  9.9776325866863602e-01  9.9786737444084639e-01  9.9796951596694994e-01  9.9806839732074804e-01  9.9816290045478095e-01  9.9825207685488715e-01  9.9833514195769679e-01  9.9841146380157120e-01  9.9848054743017600e-01  9.9854201648611185e-01  9.9859559322242042e-01  9.9864107776980660e-01  9.9867832667617362e-01  9.9870722846324200e-01  9.9872766593823326e-01  9.9873942205074928e-01  9.9874183705062702e-01  9.5340076830437603e-01  9.5370263546902245e-01  9.5455014091432488e-01  9.5590054980016292e-01  9.5769753182765127e-01  9.5986944257953000e-01  9.6233413809873536e-01  9.6500490240762948e-01  9.6779608957264462e-01  9.7062788723225768e-01  9.7342988973501754e-01  9.7614336915431332e-01  9.7872229852340020e-01  9.8113330349192440e-01  9.8335478894529482e-01  9.8537550899303894e-01  9.8719283261872315e-01  9.8881091674784782e-01  9.9023894656247857e-01  9.9148954992713012e-01  9.9257744567204198e-01  9.9351834779463721e-01  9.9432812038494978e-01  9.9502216053078563e-01  9.9561497695799395e-01  9.9611992873114830e-01  9.9654908907317541e-01  9.9691320263902561e-01  9.9722170914604824e-01  9.9748281123336968e-01  9.9770356921861925e-01  9.9789000971302833e-01  9.9804723869359613e-01  9.9817955258134161e-01  9.9829054317800670e-01  9.9838319404888631e-01  9.9845996720082020e-01  9.9852287978628274e-01  9.9857357115335899e-01  9.9861336093147923e-01  9.9864329905500160e-01  9.9866420872907613e-01  9.9867672337109192e-01  9.9868131854291575e-01  9.9867833984239451e-01  9.9866802765897589e-01  9.9865053962432926e-01  9.9862597150704302e-01  9.9859437721030520e-01  9.9855578843027970e-01  9.9851023441668685e-01  9.9845776214146775e-01  9.9839845702243213e-01  9.9833246416406485e-01  9.9826000986750563e-01  9.9818142293025425e-01  9.9809715501248630e-01  9.9800779910580140e-01  9.9791410492256738e-01  9.9781698985599998e-01  9.9771754407273805e-01  9.9761702832183741e-01  9.9751686320445532e-01  9.9741860896631540e-01  9.9732393535571862e-01  9.9723458171995927e-01  9.9715230825685064e-01  9.9707884013733228e-01  9.9701580699204106e-01  9.9696468091947366e-01  9.9692671663525445e-01  9.9690289756295525e-01  9.9689389151503582e-01  9.9690001911337756e-01  9.9692123728169257e-01  9.9695713907877970e-01  9.9700696993890481e-01  9.9706965917069923e-01  9.9714386446831094e-01  9.9722802632116148e-01  9.9732042865254700e-01  9.9741926181157237e-01  9.9752268418209455e-01  9.9762887911110587e-01  9.9773610452221895e-01  9.9784273337632423e-01  9.9794728397762411e-01  9.9804843991561698e-01  9.9814506011739024e-01  9.9823618001795433e-01  9.9832100522076272e-01  9.9839889921759717e-01  9.9846936678283571e-01  9.9853203457549922e-01  9.9858663029697681e-01  9.9863296148095160e-01  9.9867089466486303e-01  9.9870033552397386e-01  9.9872121203503639e-01  9.9873347500645926e-01  9.9873720587674997e-01  9.5424239727172611e-01  9.5451894684467131e-01  9.5533454241213445e-01  9.5664801146238387e-01  9.5840212189430929e-01  9.6052562873164116e-01  9.6293769369033266e-01  9.6555327820560355e-01  9.6828845419334053e-01  9.7106497790374491e-01  9.7381376001804565e-01  9.7647709086481005e-01  9.7900965771768667e-01  9.8137851765936945e-01  9.8356226214366393e-01  9.8554963315709165e-01  9.8733783673679565e-01  9.8893076102986832e-01  9.9033725593164135e-01  9.9156957983588412e-01  9.9264207299510676e-01  9.9357008002399905e-01  9.9436911723562149e-01  9.9505426312541434e-01  9.9563974082967033e-01  9.9613865786612743e-01  9.9656286905640701e-01  9.9692293164749302e-01  9.9722812606209510e-01  9.9748652053905384e-01  9.9770506260487601e-01  9.9788968451737403e-01  9.9804541338902009e-01  9.9817647959579925e-01  9.9828641934407369e-01  9.9837816897891751e-01  9.9845414986370962e-01  9.9851634353455265e-01  9.9856635741878719e-01  9.9860548177732433e-01  9.9863473874556141e-01  9.9865492445453818e-01  9.9866664524865056e-01  9.9867034900485052e-01  9.9866635251895397e-01  9.9865486586900343e-01  9.9863601459993767e-01  9.9860986050029865e-01  9.9857642165939153e-01  9.9853569239887341e-01  9.9848766356130381e-01  9.9843234350419108e-01  9.9836977998621013e-01  9.9830008293869477e-01  9.9822344788906858e-01  9.9814017954657752e-01  9.9805071478308882e-01  9.9795564395815051e-01  9.9785572927067956e-01  9.9775191859948464e-01  9.9764535315693903e-01  9.9753736726274067e-01  9.9742947868404563e-01  9.9732336831230473e-01  9.9722084846866121e-01  9.9712381983957665e-01  9.9703421790619584e-01  9.9695395067965398e-01  9.9688483049882426e-01  9.9682850347772378e-01  9.9678638079329762e-01  9.9675957627937861e-01  9.9674885466841456e-01  9.9675459427375146e-01  9.9677676696118922e-01  9.9681493700341983e-01  9.9686827897456431e-01  9.9693561338161418e-01  9.9701545740668451e-01  9.9710608709012793e-01  9.9720560662096092e-01  9.9731202016572196e-01  9.9742330185145922e-01  9.9753746006442401e-01  9.9765259303795939e-01  9.9776693366667513e-01  9.9787888248387624e-01  9.9798702867419675e-01  9.9809015978699933e-01  9.9818726142151548e-01  9.9827750855445285e-01  9.9836025038268494e-01  9.9843499058444507e-01  9.9850136480196039e-01  9.9855911696727540e-01  9.9860807590296541e-01  9.9864813357143678e-01  9.9867922678492471e-01  9.9870132610759943e-01  9.9871444114258923e-01  9.9871865934536097e-01  9.5556116668716728e-01  9.5582093446679217e-01  9.5659956671114188e-01  9.5786036441599198e-01  9.5954863940991386e-01  9.6159567680534230e-01  9.6392349982696879e-01  9.6645009705350393e-01  9.6909448524141151e-01  9.7178107723425333e-01  9.7444301544957079e-01  9.7702432856727339e-01  9.7948093764627697e-01  9.8178066095231276e-01  9.8390243886624917e-01  9.8583502534731748e-01  9.8757538077884022e-01  9.8912696543333145e-01  9.9049808556243135e-01  9.9170039510745889e-01  9.9274761189786576e-01  9.9365447153735598e-01  9.9443591609578108e-01  9.9510649769254156e-01  9.9567996761543931e-01  9.9616901796148261e-01  9.9658514314198687e-01  9.9693859144018349e-01  9.9723838095560025e-01  9.9749235886209997e-01  9.9770728738605174e-01  9.9788894395116157e-01  9.9804222638118190e-01  9.9817125686073005e-01  9.9827948055889992e-01  9.9836975649012771e-01  9.9844443940792893e-01  9.9850545238748245e-01  9.9855435033373108e-01  9.9859237502300491e-01  9.9862050250621381e-01  9.9863948381639989e-01  9.9864987996803700e-01  9.9865209223558171e-01  9.9864638867223399e-01  9.9863292778795976e-01  9.9861178025459063e-01  9.9858294944698467e-01  9.9854639156109914e-01  9.9850203596796328e-01  9.9844980636053249e-01  9.9838964312068468e-01  9.9832152716845302e-01  9.9824550534838952e-01  9.9816171715481383e-01  9.9807042229931964e-01  9.9797202828752285e-01  9.9786711681340345e-01  9.9775646742437785e-01  9.9764107659449697e-01  9.9752217011223709e-01  9.9740120659465226e-01  9.9727987003313645e-01  9.9716004960215299e-01  9.9704380554833127e-01  9.9693332082336028e-01  9.9683083919433324e-01  9.9673859178344493e-01  9.9665871524020178e-01  9.9659316588919689e-01  9.9654363506853549e-01  9.9651147133308537e-01  9.9649761513501289e-01  9.9650255096413343e-01  9.9652628076044458e-01  9.9656832080683511e-01  9.9662772244356801e-01  9.9670311503145392e-01  9.9679276784975268e-01  9.9689466624334111e-01  9.9700659647100542e-01  9.9712623341770379e-01  9.9725122560408297e-01  9.9737927267254722e-01  9.9750819161719062e-01  9.9763596929714793e-01  9.9776080007300605e-01  9.9788110860000689e-01  9.9799555880233670e-01  9.9810305078430317e-01  9.9820270789154775e-01  9.9829385633717049e-01  9.9837599979677327e-01  9.9844879121163665e-01  9.9851200378950034e-01  9.9856550293870183e-01  9.9860922071745206e-01  9.9864313445834330e-01  9.9866725159370495e-01  9.9868160261765437e-01  9.9868623905979015e-01  9.5731344006761510e-01  9.5755687923274224e-01  9.5829250787823772e-01  9.5948733391143404e-01  9.6109037634119399e-01  9.6303685680231699e-01  9.6525298602115439e-01  9.6766100354779272e-01  9.7018398678659212e-01  9.7274999055479827e-01  9.7529521851854251e-01  9.7776609455896224e-01  9.8012025404257797e-01  9.8232658960929331e-01  9.8436455512476784e-01  9.8622295706830121e-01  9.8789845366523332e-01  9.8939395016753817e-01  9.9071703525854926e-01  9.9187855789929624e-01  9.9289140241985308e-01  9.9376948580483804e-01  9.9452697612922480e-01  9.9517771457895299e-01  9.9573481414620957e-01  9.9621040426572771e-01  9.9661549070566913e-01  9.9695990250894517e-01  9.9725230156563305e-01  9.9750023466397264e-01  9.9771021207217603e-01  9.9788780052327475e-01  9.9803772175151173e-01  9.9816395041433092e-01  9.9826980735199033e-01  9.9835804574921438e-01  9.9843092894918251e-01  9.9849029951148438e-01  9.9853763967902409e-01  9.9857412379106603e-01  9.9860066340629072e-01  9.9861794602520926e-01  9.9862646835964763e-01  9.9862656511330894e-01  9.9861843422908780e-01  9.9860215953687792e-01  9.9857773170575359e-01  9.9854506836778167e-01  9.9850403423463774e-01  9.9845446196668286e-01  9.9839617446855744e-01  9.9832900916507616e-01  9.9825284464475283e-01  9.9816762983468543e-01  9.9807341558129903e-01  9.9797038815308015e-01  9.9785890375833597e-01  9.9773952269855715e-01  9.9761304128524364e-01  9.9748051917960689e-01  9.9734329943008304e-01  9.9720301825390012e-01  9.9706160161319346e-01  9.9692124594531606e-01  9.9678438107381018e-01  9.9665361436898037e-01  9.9653165661377308e-01  9.9642123167128915e-01  9.9632497379405549e-01  9.9624531806185634e-01  9.9618439075775200e-01  9.9614390727178925e-01  9.9612508518677678e-01  9.9612857946243794e-01  9.9615444511528239e-01  9.9620213063084151e-01  9.9627050278367291e-01  9.9635790088609522e-01  9.9646221606252472e-01  9.9658098923898930e-01  9.9671152035066668e-01  9.9685098089688828e-01  9.9699652238832548e-01  9.9714537430802741e-01  9.9729492674838882e-01  9.9744279465971852e-01  9.9758686242891825e-01  9.9772530911213420e-01  9.9785661594250252e-01  9.9797955865527932e-01  9.9809318770784794e-01  9.9819679965789898e-01  9.9828990286728569e-01  9.9837218040591114e-01  9.9844345262780465e-01  9.9850364146327286e-01  9.9855273808222578e-01  9.9859077524771589e-01  9.9861780524319521e-01  9.9863388312301982e-01  9.9863905186334512e-01  9.5943467754022416e-01  9.5966073003521735e-01  9.6034763999786543e-01  9.6146561047298162e-01  9.6296780810130611e-01  9.6479424155202065e-01  9.6687628043591189e-01  9.6914138812118067e-01  9.7151761943123094e-01  9.7393749413115305e-01  9.7634097927035046e-01  9.7867745895362612e-01  9.8090670580407757e-01  9.8299897307615469e-01  9.8493439107319669e-01  9.8670187709575841e-01  9.8829776192190744e-01  9.8972430805285161e-01  9.9098825596749673e-01  9.9209949297437361e-01  9.9306990091694913e-01  9.9391240738139963e-01  9.9464024144389351e-01  9.9526637914974037e-01  9.9580315473689951e-01  9.9626200962521239e-01  9.9665335088728169e-01  9.9698649296997999e-01  9.9726965978682114e-01  9.9751002817302870e-01  9.9771379756374723e-01  9.9788627430488075e-01  9.9803196207366751e-01  9.9815465241773471e-01  9.9825751143077346e-01  9.9834316012270774e-01  9.9841374718286213e-01  9.9847101365101654e-01  9.9851634957430113e-01  9.9855084310025577e-01  9.9857532269063332e-01  9.9859039327901700e-01  9.9859646727085294e-01  9.9859379132146808e-01  9.9858246984310794e-01  9.9856248619681842e-01  9.9853372252448558e-01  9.9849597917107946e-01  9.9844899463327408e-01  9.9839246694018879e-01  9.9832607731337197e-01  9.9824951685153018e-01  9.9816251682391555e-01  9.9806488291716899e-01  9.9795653344803681e-01  9.9783754111812151e-01  9.9770817734546857e-01  9.9756895757425834e-01  9.9742068527014749e-01  9.9726449160973385e-01  9.9710186724743655e-01  9.9693468209302605e-01  9.9676518887353316e-01  9.9659600649986080e-01  9.9643008000658961e-01  9.9627061513435722e-01  9.9612098746010391e-01  9.9598462824594147e-01  9.9586489167215841e-01  9.9576491055979366e-01  9.9568744973665002e-01  9.9563476751873947e-01  9.9560849608742807e-01  9.9560955068135315e-01  9.9563807549667915e-01  9.9569343118579146e-01  9.9577422521122660e-01  9.9587838250481553e-01  9.9600325038873150e-01  9.9614572896899256e-01  9.9630241652082741e-01  9.9646975888647293e-01  9.9664419255666037e-01  9.9682227270921897e-01  9.9700077972863554e-01  9.9717680028241884e-01  9.9734778155317261e-01  9.9751155945100789e-01  9.9766636337984105e-01  9.9781080131931299e-01  9.9794382961336303e-01  9.9806471199401170e-01  9.9817297212231371e-01  9.9826834342194126e-01  9.9835071933522457e-01  9.9842010644802204e-01  9.9847658227493907e-01  9.9852025887935447e-01  9.9855125284093760e-01  9.9856966119340418e-01  9.9857554178512709e-01  9.6184862966238072e-01  9.6205628873226179e-01  9.6269001268463816e-01  9.6372300728633553e-01  9.6511279735805078e-01  9.6680467376927004e-01  9.6873580315786589e-01  9.7083955859696847e-01  9.7304964647565406e-01  9.7530367461640721e-01  9.7754591889233178e-01  9.7972917493796607e-01  9.8181570252577466e-01  9.8377736480525291e-01  9.8559512445364550e-01  9.8725808396790760e-01  9.8876225380661509e-01  9.9010920868878594e-01  9.9130475818999675e-01  9.9235772056183147e-01  9.9327885396124649e-01  9.9407997025543648e-01  9.9477323458422451e-01  9.9537063885254573e-01  9.9588362839303246e-01  9.9632285690527889e-01  9.9669804410682250e-01  9.9701791211847879e-01  9.9729017947757581e-01  9.9752159510015048e-01  9.9771799800000371e-01  9.9788439181095756e-01  9.9802502598503440e-01  9.9814347789138147e-01  9.9824273192228508e-01  9.9832525316571152e-01  9.9839305428955372e-01  9.9844775506796357e-01  9.9849063452933329e-01  9.9852267607647982e-01  9.9854460617153440e-01  9.9855692733105250e-01  9.9855994627243228e-01  9.9855379811458456e-01  9.9853846758081410e-01  9.9851380819083180e-01  9.9847956046699993e-01  9.9843537021736684e-01  9.9838080798971574e-01  9.9831539080648868e-01  9.9823860727463287e-01  9.9814994709677229e-01  9.9804893586609067e-01  9.9793517577977930e-01  9.9780839252807196e-01  9.9766848808554631e-01  9.9751559843696469e-01  9.9735015441780006e-01  9.9717294287214153e-01  9.9698516429371453e-01  9.9678848212334548e-01  9.9658505807030984e-01  9.9637756737714234e-01  9.9616918804056331e-01  9.9596355880049015e-01  9.9576470232504943e-01  9.9557691246683655e-01  9.9540460762854521e-01  9.9525215588939364e-01  9.9512368120151917e-01  9.9502286316268096e-01  9.9495274507876019e-01  9.9491556578967244e-01  9.9491262976058958e-01  9.9494422720250597e-01  9.9500961173237668e-01  9.9510703782412313e-01  9.9523385472790826e-01  9.9538664839357460e-01  9.9556141889427174e-01  9.9575377838245327e-01  9.9595915392997580e-01  9.9617298063294502e-01  9.9639087278635941e-01  9.9660876428150558e-01  9.9682301311962740e-01  9.9703046857234767e-01  9.9722850266092911e-01  9.9741501002322630e-01  9.9758838178741860e-01  9.9774745980160584e-01  9.9789147759731356e-01  9.9801999396499008e-01  9.9813282417866733e-01  9.9822997289978532e-01  9.9831157175781438e-01  9.9837782364270433e-01  9.9842895489382588e-01  9.9846517582751126e-01  9.9848664940443732e-01  9.9849346744037171e-01  9.6447382826781169e-01  9.6466252291702903e-01  9.6524023484388910e-01  9.6618309140948122e-01  9.6745305809122084e-01  9.6900094958697014e-01  9.7077007895125611e-01  9.7270013479289941e-01  9.7473089742320096e-01  9.7680547205155044e-01  9.7887281805953186e-01  9.8088946761688034e-01  9.8282043390772933e-01  9.8463939388906441e-01  9.8632828528075067e-01  9.8787648200924516e-01  9.8927971136217663e-01  9.9053885708534428e-01  9.9165876345278237e-01  9.9264712278962486e-01  9.9351349803030264e-01  9.9426850569385949e-01  9.9492316449701090e-01  9.9548840079429179e-01  9.9597469344187828e-01  9.9639183645516016e-01  9.9674879680857109e-01  9.9705364584161826e-01  9.9731354510520631e-01  9.9753477043870808e-01  9.9772276114458136e-01  9.9788218402797757e-01  9.9801700462995779e-01  9.9813056013552881e-01  9.9822563017536159e-01  9.9830450309423457e-01  9.9836903628099938e-01  9.9842070990244380e-01  9.9846067391449411e-01  9.9848978859137438e-01  9.9850865906213748e-01  9.9851766451216162e-01  9.9851698282497758e-01  9.9850661153042153e-01  9.9848638600554307e-01  9.9845599595608625e-01  9.9841500129427385e-01  9.9836284862299163e-01  9.9829888963120872e-01  9.9822240278789087e-01  9.9813261977189960e-01  9.9802875806595881e-01  9.9791006103901081e-01  9.9777584660260898e-01  9.9762556511018097e-01  9.9745886653261095e-01  9.9727567606016010e-01  9.9707627614158822e-01  9.9686139160348353e-01  9.9663227297110435e-01  9.9639077156991573e-01  9.9613939862056222e-01  9.9588135960101487e-01  9.9562055492290658e-01  9.9536153873211308e-01  9.9510942960969029e-01  9.9486977020108758e-01  9.9464833722876411e-01  9.9445090860154273e-01  9.9428299984424851e-01  9.9414958707350798e-01  9.9405483740946921e-01  9.9400186929011269e-01  9.9399256414323667e-01  9.9402744715285418e-01  9.9410564876424612e-01  9.9422495086152785e-01  9.9438191327937608e-01  9.9457206863744863e-01  9.9479016745811710e-01  9.9503045188584205e-01  9.9528693538699775e-01  9.9555366744441942e-01  9.9582496596869097e-01  9.9609560518568308e-01  9.9636095230553601e-01  9.9661705157975489e-01  9.9686065883392616e-01  9.9708923287630169e-01  9.9730089220966256e-01  9.9749434629003053e-01  9.9766881038806399e-01  9.9782391219280842e-01  9.9795959694021030e-01  9.9807603630804220e-01  9.9817354479733955e-01  9.9825250595604864e-01  9.9831330966952125e-01  9.9835630087645588e-01  9.9838173949187392e-01  9.9838977110379823e-01  9.6722903075293298e-01  9.6739869008853707e-01  9.6791927063025485e-01  9.6876973998243987e-01  9.6991647139406301e-01  9.7131584128558679e-01  9.7291741180881386e-01  9.7466733874322908e-01  9.7651166016129054e-01  9.7839917943759647e-01  9.8028374362715442e-01  9.8212581722217607e-01  9.8389334458929589e-01  9.8556196914406691e-01  9.8711472685178336e-01  9.8854135521639397e-01  9.8983736022554214e-01  9.9100296887260531e-01  9.9204207055741700e-01  9.9296122279826959e-01  9.9376876972281136e-01  9.9447409855155666e