<?xml version="1.0"?>
<VTKFile type="UnstructuredGrid"  version="0.1"  >
<UnstructuredGrid>
<Piece  NumberOfPoints="10201" NumberOfCells="20000">
<Points>
<DataArray  type="Float64"  NumberOfComponents="3"  format="ascii">0 0 0  0.25 0 0  0.5 0 0  0.75 0 0  1 0 0  1.25 0 0  1.5 0 0  1.75 0 0  2 0 0  2.25 0 0  2.5 0 0  2.75 0 0  3 0 0  3.25 0 0  3.5 0 0  3.75 0 0  4 0 0  4.25 0 0  4.5 0 0  4.75 0 0  5 0 0  5.25 0 0  5.5 0 0  5.75 0 0  6 0 0  6.25 0 0  6.5 0 0  6.75 0 0  7 0 0  7.25 0 0  7.5 0 0  7.75 0 0  8 0 0  8.25 0 0  8.5 0 0  8.75 0 0  9 0 0  9.25 0 0  9.5 0 0  9.75 0 0  10 0 0  10.25 0 0  10.5 0 0  10.75 0 0  11 0 0  11.25 0 0  11.5 0 0  11.75 0 0  12 0 0  12.25 0 0  12.5 0 0  12.75 0 0  13 0 0  13.25 0 0  13.5 0 0  13.75 0 0  14 0 0  14.25 0 0  14.5 0 0  14.75 0 0  15 0 0  15.25 0 0  15.5 0 0  15.75 0 0  16 0 0  16.25 0 0  16.5 0 0  16.75 0 0  17 0 0  17.25 0 0  17.5 0 0  17.75 0 0  18 0 0  18.25 0 0  18.5 0 0  18.75 0 0  19 0 0  19.25 0 0  19.5 0 0  19.75 0 0  20 0 0  20.25 0 0  20.5 0 0  20.75 0 0  21 0 0  21.25 0 0  21.5 0 0  21.75 0 0  22 0 0  22.25 0 0  22.5 0 0  22.75 0 0  23 0 0  23.25 0 0  23.5 0 0  23.75 0 0  24 0 0  24.25 0 0  24.5 0 0  24.75 0 0  25 0 0  0 0.25 0  0.25 0.25 0  0.5 0.25 0  0.75 0.25 0  1 0.25 0  1.25 0.25 0  1.5 0.25 0  1.75 0.25 0  2 0.25 0  2.25 0.25 0  2.5 0.25 0  2.75 0.25 0  3 0.25 0  3.25 0.25 0  3.5 0.25 0  3.75 0.25 0  4 0.25 0  4.25 0.25 0  4.5 0.25 0  4.75 0.25 0  5 0.25 0  5.25 0.25 0  5.5 0.25 0  5.75 0.25 0  6 0.25 0  6.25 0.25 0  6.5 0.25 0  6.75 0.25 0  7 0.25 0  7.25 0.25 0  7.5 0.25 0  7.75 0.25 0  8 0.25 0  8.25 0.25 0  8.5 0.25 0  8.75 0.25 0  9 0.25 0  9.25 0.25 0  9.5 0.25 0  9.75 0.25 0  10 0.25 0  10.25 0.25 0  10.5 0.25 0  10.75 0.25 0  11 0.25 0  11.25 0.25 0  11.5 0.25 0  11.75 0.25 0  12 0.25 0  12.25 0.25 0  12.5 0.25 0  12.75 0.25 0  13 0.25 0  13.25 0.25 0  13.5 0.25 0  13.75 0.25 0  14 0.25 0  14.25 0.25 0  14.5 0.25 0  14.75 0.25 0  15 0.25 0  15.25 0.25 0  15.5 0.25 0  15.75 0.25 0  16 0.25 0  16.25 0.25 0  16.5 0.25 0  16.75 0.25 0  17 0.25 0  17.25 0.25 0  17.5 0.25 0  17.75 0.25 0  18 0.25 0  18.25 0.25 0  18.5 0.25 0  18.75 0.25 0  19 0.25 0  19.25 0.25 0  19.5 0.25 0  19.75 0.25 0  20 0.25 0  20.25 0.25 0  20.5 0.25 0  20.75 0.25 0  21 0.25 0  21.25 0.25 0  21.5 0.25 0  21.75 0.25 0  22 0.25 0  22.25 0.25 0  22.5 0.25 0  22.75 0.25 0  23 0.25 0  23.25 0.25 0  23.5 0.25 0  23.75 0.25 0  24 0.25 0  24.25 0.25 0  24.5 0.25 0  24.75 0.25 0  25 0.25 0  0 0.5 0  0.25 0.5 0  0.5 0.5 0  0.75 0.5 0  1 0.5 0  1.25 0.5 0  1.5 0.5 0  1.75 0.5 0  2 0.5 0  2.25 0.5 0  2.5 0.5 0  2.75 0.5 0  3 0.5 0  3.25 0.5 0  3.5 0.5 0  3.75 0.5 0  4 0.5 0  4.25 0.5 0  4.5 0.5 0  4.75 0.5 0  5 0.5 0  5.25 0.5 0  5.5 0.5 0  5.75 0.5 0  6 0.5 0  6.25 0.5 0  6.5 0.5 0  6.75 0.5 0  7 0.5 0  7.25 0.5 0  7.5 0.5 0  7.75 0.5 0  8 0.5 0  8.25 0.5 0  8.5 0.5 0  8.75 0.5 0  9 0.5 0  9.25 0.5 0  9.5 0.5 0  9.75 0.5 0  10 0.5 0  10.25 0.5 0  10.5 0.5 0  10.75 0.5 0  11 0.5 0  11.25 0.5 0  11.5 0.5 0  11.75 0.5 0  12 0.5 0  12.25 0.5 0  12.5 0.5 0  12.75 0.5 0  13 0.5 0  13.25 0.5 0  13.5 0.5 0  13.75 0.5 0  14 0.5 0  14.25 0.5 0  14.5 0.5 0  14.75 0.5 0  15 0.5 0  15.25 0.5 0  15.5 0.5 0  15.75 0.5 0  16 0.5 0  16.25 0.5 0  16.5 0.5 0  16.75 0.5 0  17 0.5 0  17.25 0.5 0  17.5 0.5 0  17.75 0.5 0  18 0.5 0  18.25 0.5 0  18.5 0.5 0  18.75 0.5 0  19 0.5 0  19.25 0.5 0  19.5 0.5 0  19.75 0.5 0  20 0.5 0  20.25 0.5 0  20.5 0.5 0  20.75 0.5 0  21 0.5 0  21.25 0.5 0  21.5 0.5 0  21.75 0.5 0  22 0.5 0  22.25 0.5 0  22.5 0.5 0  22.75 0.5 0  23 0.5 0  23.25 0.5 0  23.5 0.5 0  23.75 0.5 0  24 0.5 0  24.25 0.5 0  24.5 0.5 0  24.75 0.5 0  25 0.5 0  0 0.75 0  0.25 0.75 0  0.5 0.75 0  0.75 0.75 0  1 0.75 0  1.25 0.75 0  1.5 0.75 0  1.75 0.75 0  2 0.75 0  2.25 0.75 0  2.5 0.75 0  2.75 0.75 0  3 0.75 0  3.25 0.75 0  3.5 0.75 0  3.75 0.75 0  4 0.75 0  4.25 0.75 0  4.5 0.75 0  4.75 0.75 0  5 0.75 0  5.25 0.75 0  5.5 0.75 0  5.75 0.75 0  6 0.75 0  6.25 0.75 0  6.5 0.75 0  6.75 0.75 0  7 0.75 0  7.25 0.75 0  7.5 0.75 0  7.75 0.75 0  8 0.75 0  8.25 0.75 0  8.5 0.75 0  8.75 0.75 0  9 0.75 0  9.25 0.75 0  9.5 0.75 0  9.75 0.75 0  10 0.75 0  10.25 0.75 0  10.5 0.75 0  10.75 0.75 0  11 0.75 0  11.25 0.75 0  11.5 0.75 0  11.75 0.75 0  12 0.75 0  12.25 0.75 0  12.5 0.75 0  12.75 0.75 0  13 0.75 0  13.25 0.75 0  13.5 0.75 0  13.75 0.75 0  14 0.75 0  14.25 0.75 0  14.5 0.75 0  14.75 0.75 0  15 0.75 0  15.25 0.75 0  15.5 0.75 0  15.75 0.75 0  16 0.75 0  16.25 0.75 0  16.5 0.75 0  16.75 0.75 0  17 0.75 0  17.25 0.75 0  17.5 0.75 0  17.75 0.75 0  18 0.75 0  18.25 0.75 0  18.5 0.75 0  18.75 0.75 0  19 0.75 0  19.25 0.75 0  19.5 0.75 0  19.75 0.75 0  20 0.75 0  20.25 0.75 0  20.5 0.75 0  20.75 0.75 0  21 0.75 0  21.25 0.75 0  21.5 0.75 0  21.75 0.75 0  22 0.75 0  22.25 0.75 0  22.5 0.75 0  22.75 0.75 0  23 0.75 0  23.25 0.75 0  23.5 0.75 0  23.75 0.75 0  24 0.75 0  24.25 0.75 0  24.5 0.75 0  24.75 0.75 0  25 0.75 0  0 1 0  0.25 1 0  0.5 1 0  0.75 1 0  1 1 0  1.25 1 0  1.5 1 0  1.75 1 0  2 1 0  2.25 1 0  2.5 1 0  2.75 1 0  3 1 0  3.25 1 0  3.5 1 0  3.75 1 0  4 1 0  4.25 1 0  4.5 1 0  4.75 1 0  5 1 0  5.25 1 0  5.5 1 0  5.75 1 0  6 1 0  6.25 1 0  6.5 1 0  6.75 1 0  7 1 0  7.25 1 0  7.5 1 0  7.75 1 0  8 1 0  8.25 1 0  8.5 1 0  8.75 1 0  9 1 0  9.25 1 0  9.5 1 0  9.75 1 0  10 1 0  10.25 1 0  10.5 1 0  10.75 1 0  11 1 0  11.25 1 0  11.5 1 0  11.75 1 0  12 1 0  12.25 1 0  12.5 1 0  12.75 1 0  13 1 0  13.25 1 0  13.5 1 0  13.75 1 0  14 1 0  14.25 1 0  14.5 1 0  14.75 1 0  15 1 0  15.25 1 0  15.5 1 0  15.75 1 0  16 1 0  16.25 1 0  16.5 1 0  16.75 1 0  17 1 0  17.25 1 0  17.5 1 0  17.75 1 0  18 1 0  18.25 1 0  18.5 1 0  18.75 1 0  19 1 0  19.25 1 0  19.5 1 0  19.75 1 0  20 1 0  20.25 1 0  20.5 1 0  20.75 1 0  21 1 0  21.25 1 0  21.5 1 0  21.75 1 0  22 1 0  22.25 1 0  22.5 1 0  22.75 1 0  23 1 0  23.25 1 0  23.5 1 0  23.75 1 0  24 1 0  24.25 1 0  24.5 1 0  24.75 1 0  25 1 0  0 1.25 0  0.25 1.25 0  0.5 1.25 0  0.75 1.25 0  1 1.25 0  1.25 1.25 0  1.5 1.25 0  1.75 1.25 0  2 1.25 0  2.25 1.25 0  2.5 1.25 0  2.75 1.25 0  3 1.25 0  3.25 1.25 0  3.5 1.25 0  3.75 1.25 0  4 1.25 0  4.25 1.25 0  4.5 1.25 0  4.75 1.25 0  5 1.25 0  5.25 1.25 0  5.5 1.25 0  5.75 1.25 0  6 1.25 0  6.25 1.25 0  6.5 1.25 0  6.75 1.25 0  7 1.25 0  7.25 1.25 0  7.5 1.25 0  7.75 1.25 0  8 1.25 0  8.25 1.25 0  8.5 1.25 0  8.75 1.25 0  9 1.25 0  9.25 1.25 0  9.5 1.25 0  9.75 1.25 0  10 1.25 0  10.25 1.25 0  10.5 1.25 0  10.75 1.25 0  11 1.25 0  11.25 1.25 0  11.5 1.25 0  11.75 1.25 0  12 1.25 0  12.25 1.25 0  12.5 1.25 0  12.75 1.25 0  13 1.25 0  13.25 1.25 0  13.5 1.25 0  13.75 1.25 0  14 1.25 0  14.25 1.25 0  14.5 1.25 0  14.75 1.25 0  15 1.25 0  15.25 1.25 0  15.5 1.25 0  15.75 1.25 0  16 1.25 0  16.25 1.25 0  16.5 1.25 0  16.75 1.25 0  17 1.25 0  17.25 1.25 0  17.5 1.25 0  17.75 1.25 0  18 1.25 0  18.25 1.25 0  18.5 1.25 0  18.75 1.25 0  19 1.25 0  19.25 1.25 0  19.5 1.25 0  19.75 1.25 0  20 1.25 0  20.25 1.25 0  20.5 1.25 0  20.75 1.25 0  21 1.25 0  21.25 1.25 0  21.5 1.25 0  21.75 1.25 0  22 1.25 0  22.25 1.25 0  22.5 1.25 0  22.75 1.25 0  23 1.25 0  23.25 1.25 0  23.5 1.25 0  23.75 1.25 0  24 1.25 0  24.25 1.25 0  24.5 1.25 0  24.75 1.25 0  25 1.25 0  0 1.5 0  0.25 1.5 0  0.5 1.5 0  0.75 1.5 0  1 1.5 0  1.25 1.5 0  1.5 1.5 0  1.75 1.5 0  2 1.5 0  2.25 1.5 0  2.5 1.5 0  2.75 1.5 0  3 1.5 0  3.25 1.5 0  3.5 1.5 0  3.75 1.5 0  4 1.5 0  4.25 1.5 0  4.5 1.5 0  4.75 1.5 0  5 1.5 0  5.25 1.5 0  5.5 1.5 0  5.75 1.5 0  6 1.5 0  6.25 1.5 0  6.5 1.5 0  6.75 1.5 0  7 1.5 0  7.25 1.5 0  7.5 1.5 0  7.75 1.5 0  8 1.5 0  8.25 1.5 0  8.5 1.5 0  8.75 1.5 0  9 1.5 0  9.25 1.5 0  9.5 1.5 0  9.75 1.5 0  10 1.5 0  10.25 1.5 0  10.5 1.5 0  10.75 1.5 0  11 1.5 0  11.25 1.5 0  11.5 1.5 0  11.75 1.5 0  12 1.5 0  12.25 1.5 0  12.5 1.5 0  12.75 1.5 0  13 1.5 0  13.25 1.5 0  13.5 1.5 0  13.75 1.5 0  14 1.5 0  14.25 1.5 0  14.5 1.5 0  14.75 1.5 0  15 1.5 0  15.25 1.5 0  15.5 1.5 0  15.75 1.5 0  16 1.5 0  16.25 1.5 0  16.5 1.5 0  16.75 1.5 0  17 1.5 0  17.25 1.5 0  17.5 1.5 0  17.75 1.5 0  18 1.5 0  18.25 1.5 0  18.5 1.5 0  18.75 1.5 0  19 1.5 0  19.25 1.5 0  19.5 1.5 0  19.75 1.5 0  20 1.5 0  20.25 1.5 0  20.5 1.5 0  20.75 1.5 0  21 1.5 0  21.25 1.5 0  21.5 1.5 0  21.75 1.5 0  22 1.5 0  22.25 1.5 0  22.5 1.5 0  22.75 1.5 0  23 1.5 0  23.25 1.5 0  23.5 1.5 0  23.75 1.5 0  24 1.5 0  24.25 1.5 0  24.5 1.5 0  24.75 1.5 0  25 1.5 0  0 1.75 0  0.25 1.75 0  0.5 1.75 0  0.75 1.75 0  1 1.75 0  1.25 1.75 0  1.5 1.75 0  1.75 1.75 0  2 1.75 0  2.25 1.75 0  2.5 1.75 0  2.75 1.75 0  3 1.75 0  3.25 1.75 0  3.5 1.75 0  3.75 1.75 0  4 1.75 0  4.25 1.75 0  4.5 1.75 0  4.75 1.75 0  5 1.75 0  5.25 1.75 0  5.5 1.75 0  5.75 1.75 0  6 1.75 0  6.25 1.75 0  6.5 1.75 0  6.75 1.75 0  7 1.75 0  7.25 1.75 0  7.5 1.75 0  7.75 1.75 0  8 1.75 0  8.25 1.75 0  8.5 1.75 0  8.75 1.75 0  9 1.75 0  9.25 1.75 0  9.5 1.75 0  9.75 1.75 0  10 1.75 0  10.25 1.75 0  10.5 1.75 0  10.75 1.75 0  11 1.75 0  11.25 1.75 0  11.5 1.75 0  11.75 1.75 0  12 1.75 0  12.25 1.75 0  12.5 1.75 0  12.75 1.75 0  13 1.75 0  13.25 1.75 0  13.5 1.75 0  13.75 1.75 0  14 1.75 0  14.25 1.75 0  14.5 1.75 0  14.75 1.75 0  15 1.75 0  15.25 1.75 0  15.5 1.75 0  15.75 1.75 0  16 1.75 0  16.25 1.75 0  16.5 1.75 0  16.75 1.75 0  17 1.75 0  17.25 1.75 0  17.5 1.75 0  17.75 1.75 0  18 1.75 0  18.25 1.75 0  18.5 1.75 0  18.75 1.75 0  19 1.75 0  19.25 1.75 0  19.5 1.75 0  19.75 1.75 0  20 1.75 0  20.25 1.75 0  20.5 1.75 0  20.75 1.75 0  21 1.75 0  21.25 1.75 0  21.5 1.75 0  21.75 1.75 0  22 1.75 0  22.25 1.75 0  22.5 1.75 0  22.75 1.75 0  23 1.75 0  23.25 1.75 0  23.5 1.75 0  23.75 1.75 0  24 1.75 0  24.25 1.75 0  24.5 1.75 0  24.75 1.75 0  25 1.75 0  0 2 0  0.25 2 0  0.5 2 0  0.75 2 0  1 2 0  1.25 2 0  1.5 2 0  1.75 2 0  2 2 0  2.25 2 0  2.5 2 0  2.75 2 0  3 2 0  3.25 2 0  3.5 2 0  3.75 2 0  4 2 0  4.25 2 0  4.5 2 0  4.75 2 0  5 2 0  5.25 2 0  5.5 2 0  5.75 2 0  6 2 0  6.25 2 0  6.5 2 0  6.75 2 0  7 2 0  7.25 2 0  7.5 2 0  7.75 2 0  8 2 0  8.25 2 0  8.5 2 0  8.75 2 0  9 2 0  9.25 2 0  9.5 2 0  9.75 2 0  10 2 0  10.25 2 0  10.5 2 0  10.75 2 0  11 2 0  11.25 2 0 
[...]
<PointData  Scalars="f_26"> 
<DataArray  type="Float64"  Name="f_26"  format="ascii">4.2505097316424323e-02  4.2138468444990675e-02  4.1450208249104392e-02  4.0398664919761677e-02  3.8997016608408333e-02  3.7287576890961627e-02  3.5338680911754392e-02  3.3243034464914854e-02  3.1111464677797181e-02  2.9063501159043117e-02  2.7216812950156939e-02  2.5675026641739072e-02  2.4514065522469045e-02  2.3769871583713683e-02  2.3431865451283399e-02  2.3445255957972009e-02  2.3720150693501831e-02  2.4140823475481642e-02  2.4571371708784050e-02  2.4861184702527361e-02  2.4856684794358992e-02  2.4422527910303825e-02  2.3468809786798262e-02  2.1974333208669556e-02  1.9993445323696298e-02  1.7638598183698003e-02  1.5042389577175604e-02  1.2316228842883041e-02  9.5264486187012151e-03  6.6985548243431734e-03  3.8436262908027106e-03  9.8977327680100247e-04  -1.7962388564651752e-03  -4.4021141503395077e-03  -6.6778038778168318e-03  -8.4586744080145104e-03  -9.6014666059648021e-03  -1.0022777151133349e-02  -9.7265040865669970e-03  -8.8117014105591317e-03  -7.4611503829120247e-03  -5.9163478963664314e-03  -4.4460035682121878e-03  -3.3133535709109958e-03  -2.7437148853069809e-03  -2.8932676005531148e-03  -3.8250747897390987e-03  -5.4995028593497423e-03  -7.7812757521376254e-03  -1.0462385001590625e-02  -1.3298010282453403e-02  -1.6046295222963351e-02  -1.8499376462033652e-02  -2.0497541987956388e-02  -2.1927948798761671e-02  -2.2719168016768276e-02  -2.2843319919859870e-02  -2.2326273819826953e-02  -2.1254757723810542e-02  -1.9768700680406200e-02  -1.8036478241044953e-02  -1.6220374799378504e-02  -1.4444098076176928e-02  -1.2772147434128992e-02  -1.1205038404836803e-02  -9.6889965366844261e-03  -8.1355451404123459e-03  -6.4452916514223697e-03  -4.5329633247261714e-03  -2.3528371114627453e-03  8.1450268477645539e-05  2.6932286695067671e-03  5.3591617769525165e-03  7.9369849151461561e-03  1.0291587490066862e-02  1.2312431947486595e-02  1.3921429305056901e-02  1.5071706271797280e-02  1.5738522737401360e-02  1.5906955214261290e-02  1.5563847793841967e-02  1.4700801376091430e-02  1.3329349525635538e-02  1.1501516856099504e-02  9.3238103279651482e-03  6.9529730445109690e-03  4.5702039839920789e-03  2.3440214885900746e-03  3.9775561873361861e-04  -1.2074726822411672e-03  -2.4703290534609300e-03  -3.4301670755407152e-03  -4.1413986130059682e-03  -4.6537021694675754e-03  -5.0040714799682836e-03  -5.2192013017381559e-03  -5.3234845799912424e-03  -5.3460452150769335e-03  -5.3204250557287152e-03  -5.2746416840449102e-03  -5.2102483974232816e-03  4.1578251928903943e-02  4.1341200977948342e-02  4.0702306847469803e-02  3.9688012387388935e-02  3.8325962909540656e-02  3.6660435972531526e-02  3.4758192764931431e-02  3.2709486658426351e-02  3.0622962111114604e-02  2.8616507395681060e-02  2.6806764041583369e-02  2.5297261282334532e-02  2.4165026571332175e-02  2.3448047282506837e-02  2.3137838272469562e-02  2.3180687825854755e-02  2.3486363883514893e-02  2.3937915258350883e-02  2.4398135903738835e-02  2.4715420783452423e-02  2.4735429409518585e-02  2.4321973599316763e-02  2.3383841418935326e-02  2.1898002140791219e-02  1.9917132000142786e-02  1.7553462861125763e-02  1.4941729627562761e-02  1.2197402870837511e-02  9.3912089074095987e-03  6.5515965291692369e-03  3.6902661397433503e-03  8.3414957555370817e-04  -1.9518188095248529e-03  -4.5571657493617091e-03  -6.8334420394272075e-03  -8.6169916265524827e-03  -9.7644317550056973e-03  -1.0191054699182019e-02  -9.8988043506043934e-03  -8.9849895041939007e-03  -7.6315792310346024e-03  -6.0804351360967063e-03  -4.6012949958116412e-03  -3.4581028784420810e-03  -2.8760922720540072e-03  -3.0109398795004727e-03  -3.9252679327455142e-03  -5.5793101473627449e-03  -7.8381714529785519e-03  -1.0494639351681554e-02  -1.3304577234353158e-02  -1.6026297425581617e-02  -1.8451579241393075e-02  -2.0420312533426660e-02  -2.1820008202073887e-02  -2.2580627025612691e-02  -2.2676113045583431e-02  -2.2133635106331404e-02  -2.1040182865729552e-02  -1.9535184411457480e-02  -1.7786578420945984e-02  -1.5957075357090889e-02  -1.4171914789703324e-02  -1.2497801817383998e-02  -1.0937355203183268e-02  -9.4381291165375851e-03  -7.9120532560033371e-03  -6.2595464024044825e-03  -4.3944955019943827e-03  -2.2689848190019369e-03  1.0706999671165069e-04  2.6611324261048507e-03  5.2730118598367185e-03  7.8022731356395397e-03  1.0114950038911654e-02  1.2101518085929136e-02  1.3684798278963649e-02  1.4818550048332249e-02  1.5478268717340786e-02  1.5648838908221920e-02  1.5316609014857726e-02  1.4472489295124650e-02  1.3127018954447952e-02  1.1330643011114251e-02  9.1875628229190175e-03  6.8520189881045197e-03  4.5035685638762039e-03  2.3106546155293160e-03  3.9806637542638153e-04  -1.1708129866130599e-03  -2.3929122213628665e-03  -3.3075657746654357e-03  -3.9710504648518032e-03  -4.4360609497575846e-03  -4.7429189890264472e-03  -4.9212152052819291e-03  -4.9971350993218899e-03  -5.0004285969284419e-03  -4.9653982996068751e-03  -4.9252480770978968e-03  -4.9072844012191608e-03  3.9269177475321257e-02  3.9084716511640492e-02  3.8516081814982832e-02  3.7587799152113986e-02  3.6329089225574922e-02  3.4782024017493147e-02  3.3008108686707359e-02  3.1091094793163146e-02  2.9133634534352134e-02  2.7249012508419837e-02  2.5550963389141635e-02  2.4142313548031404e-02  2.3102112701227216e-02  2.2472643240251198e-02  2.2250122724993947e-02  2.2383644951725901e-02  2.2782724798072716e-02  2.3327677592115677e-02  2.3877500014370917e-02  2.4276839354694962e-02  2.4368098200451903e-02  2.4012319701061342e-02  2.3115715835282141e-02  2.1652648178760954e-02  1.9673808036390950e-02  1.7291770313371337e-02  1.4645456970280924e-02  1.1858029552651691e-02  9.0091207552306894e-03  6.1343134032772785e-03  3.2485592794938276e-03  3.7811139937267359e-04  -2.4149556197350115e-03  -5.0233594891731428e-03  -7.3013151799596410e-03  -9.0869448730034000e-03  -1.0237380484277629e-02  -1.0666882326328697e-02  -1.0375076193003020e-02  -9.4567391349596134e-03  -8.0925356969745888e-03  -6.5250882571852992e-03  -5.0263253139785583e-03  -3.8618455117615078e-03  -3.2563411352118077e-03  -3.3628764079591325e-03  -4.2407936312992001e-03  -5.8477198433199489e-03  -8.0476911319948986e-03  -1.0634309183842776e-02  -1.3365603399116422e-02  -1.6002298954726636e-02  -1.8337837456745387e-02  -2.0212833328586387e-02  -2.1515680756235424e-02  -2.2178868774570301e-02  -2.2180835286569639e-02  -2.1553841181497155e-02  -2.0388521687006195e-02  -1.8825498950221686e-02  -1.7032327705173194e-02  -1.5171700488762188e-02  -1.3370653432812898e-02  -1.1699453388802256e-02  -1.0164708887628666e-02  -8.7168162666708838e-03  -7.2686429648415457e-03  -5.7199140384410737e-03  -3.9823493450003708e-03  -2.0035519060874816e-03  2.1399082583073241e-04  2.6068478356510690e-03  5.0631387221154005e-03  7.4485946128278408e-03  9.6338190731920653e-03  1.1513348629600946e-02  1.3013788685738209e-02  1.4091741409125072e-02  1.4723752117341341e-02  1.4893539991001025e-02  1.4584610147960383e-02  1.3784614487400405e-02  1.2501316357326809e-02  1.0782687951394018e-02  8.7298262340554014e-03  6.4928296873184863e-03  4.2471364685934820e-03  2.1588902777066703e-03  3.5348052394821027e-04  -1.1028197953382869e-03  -2.2040700957944169e-03  -2.9893686084622277e-03  -3.5184824312690182e-03  -3.8505549863102942e-03  -4.0337317122066396e-03  -4.1050778292866753e-03  -4.0961982815111708e-03  -4.0392495845404872e-03  -3.9685498865814125e-03  -3.9168010282698267e-03  -3.9099395903883756e-03  3.5679438733929689e-02  3.5533296794876476e-02  3.5046662509837477e-02  3.4236331934997331e-02  3.3126601367850166e-02  3.1753251833731844e-02  3.0169373588869952e-02  2.8449300898395737e-02  2.6687066125447859e-02  2.4989301490152334e-02  2.3465459066213390e-02  2.2216979426717961e-02  2.1325084492299539e-02  2.0837413448459668e-02  2.0756439222090292e-02  2.1035238669205248e-02  2.1583219406430244e-02  2.2277118328066767e-02  2.2970810300217592e-02  2.3503877231451777e-02  2.3714298881587270e-02  2.3459138943740240e-02  2.2640606014483262e-02  2.1228810865096943e-02  1.9270740855081646e-02  1.6877952373153017e-02  1.4193449037900128e-02  1.1350041323379979e-02  8.4401481638444360e-03  5.5111538300386832e-03  2.5851616808288359e-03  -3.1035804147439212e-04  -3.1164513388743779e-03  -5.7304689492374350e-03  -8.0108666212745493e-03  -9.7988872683700823e-03  -1.0953275241882887e-02  -1.1387973596046059e-02  -1.1100301664418517e-02  -1.0181715366408439e-02  -8.8103255958250255e-03  -7.2282861608686296e-03  -5.7087546373243607e-03  -4.5182087894347009e-03  -3.8798746481134142e-03  -3.9429294576049274e-03  -4.7620922644578938e-03  -6.2914949945066878e-03  -8.3939372088192195e-03  -1.0864499508381515e-02  -1.3464882916199858e-02  -1.5960123996803202e-02  -1.8146986092510371e-02  -1.9867949782772950e-02  -2.1013161527044723e-02  -2.1518923322817865e-02  -2.1370401887464464e-02  -2.0607931297147324e-02  -1.9328586167744560e-02  -1.7675817715375484e-02  -1.5817075736249107e-02  -1.3914650254280500e-02  -1.2097231910584556e-02  -1.0439176143151497e-02  -8.9520848331060190e-03  -7.5901544833893650e-03  -6.2675381703917749e-03  -4.8826291212575113e-03  -3.3433808602870980e-03  -1.5905808462710861e-03  3.8375573006495326e-04  2.5290509580714253e-03  4.7456289827574908e-03  6.9086163220930755e-03  8.8954910842759770e-03  1.0606615582660243e-02  1.1973992175256467e-02  1.2958429911125093e-02  1.3538236355481592e-02  1.3695731894049670e-02  1.3410488457744514e-02  1.2665554160557684e-02  1.1465061466870282e-02  9.8543507479865525e-03  7.9313774940019139e-03  5.8413242980903408e-03  3.7536952518813969e-03  1.8300427655118159e-03  1.9446776317558055e-04  -1.0848539449094575e-03  -1.9993655596290652e-03  -2.5881971779123012e-03  -2.9157472531506933e-03  -3.0498625102409367e-03  -3.0493250104580839e-03  -2.9612491984301477e-03  -2.8243897005608355e-03  -2.6738293449264823e-03  -2.5429493507693095e-03  -2.4611887289786834e-03  -2.4497888455732031e-03  3.1048104577149453e-02  3.0936217314483535e-02  3.0536958735853336e-02  2.9860218249717560e-02  2.8923091144409004e-02  2.7752914193704795e-02  2.6392822038149716e-02  2.4906654965675620e-02  2.3379037421302054e-02  2.1909373429970520e-02  2.0602348753410958e-02  1.9557507501262804e-02  1.8857739630738123e-02  1.8555740472102785e-02  1.8660290610176811e-02  1.9128671733056997e-02  1.9870201859524796e-02  2.0757805639430991e-02  2.1640142678582337e-02  2.2352064503547223e-02  2.2727677480187111e-02  2.2620147713505893e-02  2.1926663620131605e-02  2.0610853898096030e-02  1.8712864056952449e-02  1.6339728115917721e-02  1.3635685756169410e-02  1.0742461339535476e-02  7.7674314524714527e-03  4.7742097012162081e-03  1.7970251542124616e-03  -1.1317564310324862e-03  -3.9549938718621584e-03  -6.5755255258967346e-03  -8.8580550549071102e-03  -1.0649223478823057e-02  -1.1811409759779699e-02  -1.2259612428374575e-02  -1.1989161539720267e-02  -1.1087178680294069e-02  -9.7269402631619591e-03  -8.1469979695163938e-03  -6.6184243842718248e-03  -5.4058497007185742e-03  -4.7294011966005078e-03  -4.7338187798008496e-03  -5.4694276294363492e-03  -6.8876999379680849e-03  -8.8515230840139590e-03  -1.1159048750049305e-02  -1.3577385086864849e-02  -1.5877610851409468e-02  -1.7861304857443815e-02  -1.9374102089605272e-02  -2.0309232391869100e-02  -2.0608358780180414e-02  -2.0265106020906684e-02  -1.9329609309478805e-02  -1.7906898526438560e-02  -1.6144285412269050e-02  -1.4209482071616365e-02  -1.2264207347476241e-02  -1.0438443859020909e-02  -8.8103643474836697e-03  -7.3964892156797154e-03  -6.1548888823913976e-03  -5.0009298520058794e-03  -3.8309486604637768e-03  -2.5475121501800542e-03  -1.0823667999491577e-03  5.8530982585913640e-04  2.4201122503361297e-03  4.3367390454625140e-03  6.2214024309525141e-03  7.9594234495936507e-03  9.4573366359733037e-03  1.0652561841878386e-02  1.1510108894338039e-02  1.2010241249124585e-02  1.2134351102470749e-02  1.1858665769565756e-02  1.1162155844341959e-02  1.0045870907279186e-02  8.5532049380284761e-03  6.7795602416583578e-03  4.8651483350977557e-03  2.9723983838351427e-03  1.2560557203644929e-03  -1.6389482522848894e-04  -1.2200647427229785e-03  -1.9031662105774428e-03  -2.2532881928005182e-03  -2.3399042297820583e-03  -2.2400788829615892e-03  -2.0238375476245960e-03  -1.7486986536427904e-03  -1.4604631608752495e-03  -1.1966681265718434e-03  -9.8916379858679884e-04  -8.6368457278951859e-04  -8.3734123428407436e-04  2.5699741939115690e-02  2.5617428372659512e-02  2.5302629694468153e-02  2.4759119595113361e-02  2.3996198440536819e-02  2.3032195907076961e-02  2.1900298312023597e-02  2.0654438390184684e-02  1.9370796560238483e-02  1.8142591163980128e-02  1.7070461747455780e-02  1.6252039344400837e-02  1.5770992556790760e-02  1.5683597438351512e-02  1.6003526525951522e-02  1.6691471644887899e-02  1.7656537207328387e-02  1.8768166143712534e-02  1.9870686406314873e-02  2.0795846894099308e-02  2.1375909701114668e-02  2.1461619676930294e-02  2.0945058839665968e-02  1.9781308282856066e-02  1.7999856406774917e-02  1.5698256471052333e-02  1.3016860614593433e-02  1.0102631813261312e-02  7.0772896285817592e-03  4.0234735412349072e-03  9.9249069969710576e-04  -1.9733673433401018e-03  -4.8155355209990244e-03  -7.4417779059262456e-03  -9.7248038773273000e-03  -1.1519682260441024e-02  -1.2695553566384984e-02  -1.3170680116143779e-02  -1.2938990729461508e-02  -1.2081879851779725e-02  -1.0764446170036846e-02  -9.2168573709019465e-03  -7.7029571804985708e-03  -6.4814051438351322e-03  -5.7671113928289136e-03  -5.7002778465440771e-03  -6.3280431138198687e-03  -7.6010813414819139e-03  -9.3846556819395383e-03  -1.1482460077018829e-02  -1.3669340972139914e-02  -1.5724485139997971e-02  -1.7456131618429065e-02  -1.8714850546069674e-02  -1.9398769337430816e-02  -1.9456528636833170e-02  -1.8891188042807788e-02  -1.7762840805592355e-02  -1.6184214781609967e-02  -1.4306356590127186e-02  -1.2297339125793087e-02  -1.0318344657867596e-02  -8.5003288436574787e-03  -6.9246118489271671e-03  -5.6118377812261226e-03  -4.5232570922244392e-03  -3.5748108451892557e-03  -2.6598374360740926e-03  -1.6740293562592856e-03  -5.3832106526146878e-04  7.8243888069362826e-04  2.2689065570026721e-03  3.8505821109651368e-03  5.4248887020053533e-03  6.8847311266518356e-03  8.1420271025816806e-03  9.1383512483075163e-03  9.8416383892410662e-03  1.0233620523568430e-02  1.0295690927591156e-02  1.0002906578807473e-02  9.3326975665281187e-03  8.2851115675186618e-03  6.9029505831578871e-03  5.2797718345218457e-03  3.5508753731786457e-03  1.8707625183736608e-03  3.8529160155040829e-04  -7.9299225725647606e-04  -1.6013585898979994e-03  -2.0328959472768679e-03  -2.1299831763136106e-03  -1.9667127801427796e-03  -1.6279116844276893e-03  -1.1931953110352041e-03  -7.2899782838654740e-04  -2.8697547892690071e-04  9.3687698102093168e-05  3.8298403643997138e-04  5.5854934211070606e-04  6.0632639681389698e-04  1.9994892506635303e-02  1.9935990236606718e-02  1.9695621801904956e-02  1.9272253986252513e-02  1.8667707142810949e-02  1.7891748566325430e-02  1.6968626685087248e-02  1.5943957312832602e-02  1.4887480890254426e-02  1.3888377698739306e-02  1.3045021157688109e-02  1.2453789869681963e-02  1.2198202011195917e-02  1.2335874571016767e-02  1.2882872349047529e-02  1.3801764953712941e-02  1.5001399186205439e-02  1.6348822665760786e-02  1.7685827974048222e-02  1.8843511540563056e-02  1.9655133653762934e-02  1.9971400103220027e-02  1.9680130914869691e-02  1.8726550163508566e-02  1.7126028619194367e-02  1.4961491932772996e-02  1.2363341183259510e-02  9.4780409697100745e-03  6.4379952709157171e-03  3.3446638658799115e-03  2.6962036433660427e-04  -2.7299119866714665e-03  -5.5893537987015312e-03  -8.2190788379346621e-03  -1.0500387655620086e-02  -1.2299578063767752e-02  -1.3496115060340390e-02  -1.4014279741499909e-02  -1.3847427716995857e-02  -1.3069648382617659e-02  -1.1833987289635898e-02  -1.0356725997189380e-02  -8.8886092452167137e-03  -7.6776610694113158e-03  -6.9312183889288304e-03  -6.7848736732334042e-03  -7.2839340719371660e-03  -8.3802536495536390e-03  -9.9439382669670260e-03  -1.1787241481153036e-02  -1.3695986565210949e-02  -1.5460534776795347e-02  -1.6898569430294476e-02  -1.7868105406748033e-02  -1.8274235252904676e-02  -1.8073745280630889e-02  -1.7278952681998961e-02  -1.5958390422676348e-02  -1.4230379297990516e-02  -1.2248117436698165e-02  -1.0179460508195714e-02  -8.1850669732161097e-03  -6.3967478257272534e-03  -4.8983956238567352e-03  -3.7139063242503162e-03  -2.8067649072949013e-03  -2.0924487950822121e-03  -1.4600155865566471e-03  -7.9685113274752598e-04  -1.1959871787144912e-05  9.4444304248936836e-04  2.0684325055110339e-03  3.3031162694417957e-03  4.5558782155567315e-03  5.7259632993693363e-03  6.7291778659908427e-03  7.5094156890654559e-03  8.0357938775319770e-03  8.2908250310732099e-03  8.2572292140082222e-03  7.9122485730812580e-03  7.2359134207911563e-03  6.2306043187654895e-03  4.9402297738143867e-03  3.4567664864543599e-03  1.9100362584284188e-03  4.4542817732644654e-04  -8.0214771084713139e-04  -1.7308331624563979e-03  -2.2866736277373820e-03  -2.4687107219533229e-03  -2.3229971702987129e-03  -1.9269196660435868e-03  -1.3699281459065053e-03  -7.3777988870470286e-04  -1.0317193800775610e-04  4.7787416089288510e-04  9.6505604055854908e-04  1.3302244984077492e-03  1.5541339261453868e-03  1.6252018479876809e-03  1.4281940048969174e-02  1.4240217955816819e-02  1.4060730288570801e-02  1.3737635051989846e-02  1.3266152108952482e-02  1.2648409038747702e-02  1.1901068587004762e-02  1.1063299854312586e-02  1.0200625152705974e-02  9.4005629202278777e-03  8.7613540276646508e-03  8.3791833374724286e-03  8.3366468317720623e-03  8.6902381619757101e-03  9.4554683989060764e-03  1.0594994379263912e-02  1.2017725680906175e-02  1.3590414729957975e-02  1.5155206274952806e-02  1.6545578472381705e-02  1.7598723607255434e-02  1.8167779982954491e-02  1.8137661089192618e-02  1.7443391841380107e-02  1.6083968270102698e-02  1.4123634042411105e-02  1.1677380541023337e-02  8.8849674946876230e-03  5.8837341305376422e-03  2.7903896862845529e-03  -3.0334888666361595e-04  -3.3222986235667555e-03  -6.1915135103058905e-03  -8.8205589978230265e-03  -1.1098272601902522e-02  -1.2903475189904375e-02  -1.4128485399448328e-02  -1.4705860867924211e-02  -1.4629128976909316e-02  -1.3963686686801802e-02  -1.2847092167763790e-02  -1.1476918570567683e-02  -1.0085660186997148e-02  -8.9064467574283320e-03  -8.1365719682603976e-03  -7.9064485911034561e-03  -8.2603527579947506e-03  -9.1529114778430738e-03  -1.0461359321134834e-02  -1.2009732290430852e-02  -1.3598849183431898e-02  -1.5034486685546194e-02  -1.6147720172316880e-02  -1.6807222765427895e-02  -1.6927004536708107e-02  -1.6472170227517506e-02  -1.5462562659355323e-02  -1.3971991059407421e-02  -1.2120717939718825e-02  -1.0061147810853609e-02  -7.9594243772526697e-03  -5.9753852141684449e-03  -4.2417523398650464e-03  -2.8447984569477973e-03  -1.8111921391978886e-03  -1.1059937837417792e-03  -6.4326717538292443e-04  -3.0646264313571783e-04  2.6647110205425241e-05  4.5943457160977502e-04  1.0553217432951473e-03  1.8235495067259948e-03  2.7181149394322015e-03  3.6539399014543501e-03  4.5346450577485346e-03  5.2781586879863639e-03  5.8290527447144641e-03  6.1564871191779605e-03  6.2438422554444047e-03  6.0772454095079764e-03  5.6402999954553931e-03  4.9207053839337061e-03  3.9271896255900591e-03  2.7064456447882610e-03  1.3483318858637349e-03  -2.4538859051840992e-05  -1.2779905911894168e-03  -2.2904221480292779e-03  -2.9735442577411703e-03  -3.2856236688940509e-03  -3.2347770531430823e-03  -2.8718815007883203e-03  -2.2758610471676865e-03  -1.5368390342602274e-03  -7.4234781768559065e-04  3.1820285832114742e-05  7.2667254645879253e-04  1.3008855515753521e-03  1.7279240800743708e-03  1.9917166441406104e-03  2.0833643654256393e-03  8.8624369439577293e-03  8.8329591825689804e-03  8.7014495353268263e-03  8.4586318483853649e-03  8.0940829212787727e-03  7.6032