<?xml version="1.0"?>
<VTKFile type="UnstructuredGrid"  version="0.1"  >
<UnstructuredGrid>
<Piece  NumberOfPoints="10201" NumberOfCells="20000">
<Points>
<DataArray  type="Float64"  NumberOfComponents="3"  format="ascii">0 0 0  0.25 0 0  0.5 0 0  0.75 0 0  1 0 0  1.25 0 0  1.5 0 0  1.75 0 0  2 0 0  2.25 0 0  2.5 0 0  2.75 0 0  3 0 0  3.25 0 0  3.5 0 0  3.75 0 0  4 0 0  4.25 0 0  4.5 0 0  4.75 0 0  5 0 0  5.25 0 0  5.5 0 0  5.75 0 0  6 0 0  6.25 0 0  6.5 0 0  6.75 0 0  7 0 0  7.25 0 0  7.5 0 0  7.75 0 0  8 0 0  8.25 0 0  8.5 0 0  8.75 0 0  9 0 0  9.25 0 0  9.5 0 0  9.75 0 0  10 0 0  10.25 0 0  10.5 0 0  10.75 0 0  11 0 0  11.25 0 0  11.5 0 0  11.75 0 0  12 0 0  12.25 0 0  12.5 0 0  12.75 0 0  13 0 0  13.25 0 0  13.5 0 0  13.75 0 0  14 0 0  14.25 0 0  14.5 0 0  14.75 0 0  15 0 0  15.25 0 0  15.5 0 0  15.75 0 0  16 0 0  16.25 0 0  16.5 0 0  16.75 0 0  17 0 0  17.25 0 0  17.5 0 0  17.75 0 0  18 0 0  18.25 0 0  18.5 0 0  18.75 0 0  19 0 0  19.25 0 0  19.5 0 0  19.75 0 0  20 0 0  20.25 0 0  20.5 0 0  20.75 0 0  21 0 0  21.25 0 0  21.5 0 0  21.75 0 0  22 0 0  22.25 0 0  22.5 0 0  22.75 0 0  23 0 0  23.25 0 0  23.5 0 0  23.75 0 0  24 0 0  24.25 0 0  24.5 0 0  24.75 0 0  25 0 0  0 0.25 0  0.25 0.25 0  0.5 0.25 0  0.75 0.25 0  1 0.25 0  1.25 0.25 0  1.5 0.25 0  1.75 0.25 0  2 0.25 0  2.25 0.25 0  2.5 0.25 0  2.75 0.25 0  3 0.25 0  3.25 0.25 0  3.5 0.25 0  3.75 0.25 0  4 0.25 0  4.25 0.25 0  4.5 0.25 0  4.75 0.25 0  5 0.25 0  5.25 0.25 0  5.5 0.25 0  5.75 0.25 0  6 0.25 0  6.25 0.25 0  6.5 0.25 0  6.75 0.25 0  7 0.25 0  7.25 0.25 0  7.5 0.25 0  7.75 0.25 0  8 0.25 0  8.25 0.25 0  8.5 0.25 0  8.75 0.25 0  9 0.25 0  9.25 0.25 0  9.5 0.25 0  9.75 0.25 0  10 0.25 0  10.25 0.25 0  10.5 0.25 0  10.75 0.25 0  11 0.25 0  11.25 0.25 0  11.5 0.25 0  11.75 0.25 0  12 0.25 0  12.25 0.25 0  12.5 0.25 0  12.75 0.25 0  13 0.25 0  13.25 0.25 0  13.5 0.25 0  13.75 0.25 0  14 0.25 0  14.25 0.25 0  14.5 0.25 0  14.75 0.25 0  15 0.25 0  15.25 0.25 0  15.5 0.25 0  15.75 0.25 0  16 0.25 0  16.25 0.25 0  16.5 0.25 0  16.75 0.25 0  17 0.25 0  17.25 0.25 0  17.5 0.25 0  17.75 0.25 0  18 0.25 0  18.25 0.25 0  18.5 0.25 0  18.75 0.25 0  19 0.25 0  19.25 0.25 0  19.5 0.25 0  19.75 0.25 0  20 0.25 0  20.25 0.25 0  20.5 0.25 0  20.75 0.25 0  21 0.25 0  21.25 0.25 0  21.5 0.25 0  21.75 0.25 0  22 0.25 0  22.25 0.25 0  22.5 0.25 0  22.75 0.25 0  23 0.25 0  23.25 0.25 0  23.5 0.25 0  23.75 0.25 0  24 0.25 0  24.25 0.25 0  24.5 0.25 0  24.75 0.25 0  25 0.25 0  0 0.5 0  0.25 0.5 0  0.5 0.5 0  0.75 0.5 0  1 0.5 0  1.25 0.5 0  1.5 0.5 0  1.75 0.5 0  2 0.5 0  2.25 0.5 0  2.5 0.5 0  2.75 0.5 0  3 0.5 0  3.25 0.5 0  3.5 0.5 0  3.75 0.5 0  4 0.5 0  4.25 0.5 0  4.5 0.5 0  4.75 0.5 0  5 0.5 0  5.25 0.5 0  5.5 0.5 0  5.75 0.5 0  6 0.5 0  6.25 0.5 0  6.5 0.5 0  6.75 0.5 0  7 0.5 0  7.25 0.5 0  7.5 0.5 0  7.75 0.5 0  8 0.5 0  8.25 0.5 0  8.5 0.5 0  8.75 0.5 0  9 0.5 0  9.25 0.5 0  9.5 0.5 0  9.75 0.5 0  10 0.5 0  10.25 0.5 0  10.5 0.5 0  10.75 0.5 0  11 0.5 0  11.25 0.5 0  11.5 0.5 0  11.75 0.5 0  12 0.5 0  12.25 0.5 0  12.5 0.5 0  12.75 0.5 0  13 0.5 0  13.25 0.5 0  13.5 0.5 0  13.75 0.5 0  14 0.5 0  14.25 0.5 0  14.5 0.5 0  14.75 0.5 0  15 0.5 0  15.25 0.5 0  15.5 0.5 0  15.75 0.5 0  16 0.5 0  16.25 0.5 0  16.5 0.5 0  16.75 0.5 0  17 0.5 0  17.25 0.5 0  17.5 0.5 0  17.75 0.5 0  18 0.5 0  18.25 0.5 0  18.5 0.5 0  18.75 0.5 0  19 0.5 0  19.25 0.5 0  19.5 0.5 0  19.75 0.5 0  20 0.5 0  20.25 0.5 0  20.5 0.5 0  20.75 0.5 0  21 0.5 0  21.25 0.5 0  21.5 0.5 0  21.75 0.5 0  22 0.5 0  22.25 0.5 0  22.5 0.5 0  22.75 0.5 0  23 0.5 0  23.25 0.5 0  23.5 0.5 0  23.75 0.5 0  24 0.5 0  24.25 0.5 0  24.5 0.5 0  24.75 0.5 0  25 0.5 0  0 0.75 0  0.25 0.75 0  0.5 0.75 0  0.75 0.75 0  1 0.75 0  1.25 0.75 0  1.5 0.75 0  1.75 0.75 0  2 0.75 0  2.25 0.75 0  2.5 0.75 0  2.75 0.75 0  3 0.75 0  3.25 0.75 0  3.5 0.75 0  3.75 0.75 0  4 0.75 0  4.25 0.75 0  4.5 0.75 0  4.75 0.75 0  5 0.75 0  5.25 0.75 0  5.5 0.75 0  5.75 0.75 0  6 0.75 0  6.25 0.75 0  6.5 0.75 0  6.75 0.75 0  7 0.75 0  7.25 0.75 0  7.5 0.75 0  7.75 0.75 0  8 0.75 0  8.25 0.75 0  8.5 0.75 0  8.75 0.75 0  9 0.75 0  9.25 0.75 0  9.5 0.75 0  9.75 0.75 0  10 0.75 0  10.25 0.75 0  10.5 0.75 0  10.75 0.75 0  11 0.75 0  11.25 0.75 0  11.5 0.75 0  11.75 0.75 0  12 0.75 0  12.25 0.75 0  12.5 0.75 0  12.75 0.75 0  13 0.75 0  13.25 0.75 0  13.5 0.75 0  13.75 0.75 0  14 0.75 0  14.25 0.75 0  14.5 0.75 0  14.75 0.75 0  15 0.75 0  15.25 0.75 0  15.5 0.75 0  15.75 0.75 0  16 0.75 0  16.25 0.75 0  16.5 0.75 0  16.75 0.75 0  17 0.75 0  17.25 0.75 0  17.5 0.75 0  17.75 0.75 0  18 0.75 0  18.25 0.75 0  18.5 0.75 0  18.75 0.75 0  19 0.75 0  19.25 0.75 0  19.5 0.75 0  19.75 0.75 0  20 0.75 0  20.25 0.75 0  20.5 0.75 0  20.75 0.75 0  21 0.75 0  21.25 0.75 0  21.5 0.75 0  21.75 0.75 0  22 0.75 0  22.25 0.75 0  22.5 0.75 0  22.75 0.75 0  23 0.75 0  23.25 0.75 0  23.5 0.75 0  23.75 0.75 0  24 0.75 0  24.25 0.75 0  24.5 0.75 0  24.75 0.75 0  25 0.75 0  0 1 0  0.25 1 0  0.5 1 0  0.75 1 0  1 1 0  1.25 1 0  1.5 1 0  1.75 1 0  2 1 0  2.25 1 0  2.5 1 0  2.75 1 0  3 1 0  3.25 1 0  3.5 1 0  3.75 1 0  4 1 0  4.25 1 0  4.5 1 0  4.75 1 0  5 1 0  5.25 1 0  5.5 1 0  5.75 1 0  6 1 0  6.25 1 0  6.5 1 0  6.75 1 0  7 1 0  7.25 1 0  7.5 1 0  7.75 1 0  8 1 0  8.25 1 0  8.5 1 0  8.75 1 0  9 1 0  9.25 1 0  9.5 1 0  9.75 1 0  10 1 0  10.25 1 0  10.5 1 0  10.75 1 0  11 1 0  11.25 1 0  11.5 1 0  11.75 1 0  12 1 0  12.25 1 0  12.5 1 0  12.75 1 0  13 1 0  13.25 1 0  13.5 1 0  13.75 1 0  14 1 0  14.25 1 0  14.5 1 0  14.75 1 0  15 1 0  15.25 1 0  15.5 1 0  15.75 1 0  16 1 0  16.25 1 0  16.5 1 0  16.75 1 0  17 1 0  17.25 1 0  17.5 1 0  17.75 1 0  18 1 0  18.25 1 0  18.5 1 0  18.75 1 0  19 1 0  19.25 1 0  19.5 1 0  19.75 1 0  20 1 0  20.25 1 0  20.5 1 0  20.75 1 0  21 1 0  21.25 1 0  21.5 1 0  21.75 1 0  22 1 0  22.25 1 0  22.5 1 0  22.75 1 0  23 1 0  23.25 1 0  23.5 1 0  23.75 1 0  24 1 0  24.25 1 0  24.5 1 0  24.75 1 0  25 1 0  0 1.25 0  0.25 1.25 0  0.5 1.25 0  0.75 1.25 0  1 1.25 0  1.25 1.25 0  1.5 1.25 0  1.75 1.25 0  2 1.25 0  2.25 1.25 0  2.5 1.25 0  2.75 1.25 0  3 1.25 0  3.25 1.25 0  3.5 1.25 0  3.75 1.25 0  4 1.25 0  4.25 1.25 0  4.5 1.25 0  4.75 1.25 0  5 1.25 0  5.25 1.25 0  5.5 1.25 0  5.75 1.25 0  6 1.25 0  6.25 1.25 0  6.5 1.25 0  6.75 1.25 0  7 1.25 0  7.25 1.25 0  7.5 1.25 0  7.75 1.25 0  8 1.25 0  8.25 1.25 0  8.5 1.25 0  8.75 1.25 0  9 1.25 0  9.25 1.25 0  9.5 1.25 0  9.75 1.25 0  10 1.25 0  10.25 1.25 0  10.5 1.25 0  10.75 1.25 0  11 1.25 0  11.25 1.25 0  11.5 1.25 0  11.75 1.25 0  12 1.25 0  12.25 1.25 0  12.5 1.25 0  12.75 1.25 0  13 1.25 0  13.25 1.25 0  13.5 1.25 0  13.75 1.25 0  14 1.25 0  14.25 1.25 0  14.5 1.25 0  14.75 1.25 0  15 1.25 0  15.25 1.25 0  15.5 1.25 0  15.75 1.25 0  16 1.25 0  16.25 1.25 0  16.5 1.25 0  16.75 1.25 0  17 1.25 0  17.25 1.25 0  17.5 1.25 0  17.75 1.25 0  18 1.25 0  18.25 1.25 0  18.5 1.25 0  18.75 1.25 0  19 1.25 0  19.25 1.25 0  19.5 1.25 0  19.75 1.25 0  20 1.25 0  20.25 1.25 0  20.5 1.25 0  20.75 1.25 0  21 1.25 0  21.25 1.25 0  21.5 1.25 0  21.75 1.25 0  22 1.25 0  22.25 1.25 0  22.5 1.25 0  22.75 1.25 0  23 1.25 0  23.25 1.25 0  23.5 1.25 0  23.75 1.25 0  24 1.25 0  24.25 1.25 0  24.5 1.25 0  24.75 1.25 0  25 1.25 0  0 1.5 0  0.25 1.5 0  0.5 1.5 0  0.75 1.5 0  1 1.5 0  1.25 1.5 0  1.5 1.5 0  1.75 1.5 0  2 1.5 0  2.25 1.5 0  2.5 1.5 0  2.75 1.5 0  3 1.5 0  3.25 1.5 0  3.5 1.5 0  3.75 1.5 0  4 1.5 0  4.25 1.5 0  4.5 1.5 0  4.75 1.5 0  5 1.5 0  5.25 1.5 0  5.5 1.5 0  5.75 1.5 0  6 1.5 0  6.25 1.5 0  6.5 1.5 0  6.75 1.5 0  7 1.5 0  7.25 1.5 0  7.5 1.5 0  7.75 1.5 0  8 1.5 0  8.25 1.5 0  8.5 1.5 0  8.75 1.5 0  9 1.5 0  9.25 1.5 0  9.5 1.5 0  9.75 1.5 0  10 1.5 0  10.25 1.5 0  10.5 1.5 0  10.75 1.5 0  11 1.5 0  11.25 1.5 0  11.5 1.5 0  11.75 1.5 0  12 1.5 0  12.25 1.5 0  12.5 1.5 0  12.75 1.5 0  13 1.5 0  13.25 1.5 0  13.5 1.5 0  13.75 1.5 0  14 1.5 0  14.25 1.5 0  14.5 1.5 0  14.75 1.5 0  15 1.5 0  15.25 1.5 0  15.5 1.5 0  15.75 1.5 0  16 1.5 0  16.25 1.5 0  16.5 1.5 0  16.75 1.5 0  17 1.5 0  17.25 1.5 0  17.5 1.5 0  17.75 1.5 0  18 1.5 0  18.25 1.5 0  18.5 1.5 0  18.75 1.5 0  19 1.5 0  19.25 1.5 0  19.5 1.5 0  19.75 1.5 0  20 1.5 0  20.25 1.5 0  20.5 1.5 0  20.75 1.5 0  21 1.5 0  21.25 1.5 0  21.5 1.5 0  21.75 1.5 0  22 1.5 0  22.25 1.5 0  22.5 1.5 0  22.75 1.5 0  23 1.5 0  23.25 1.5 0  23.5 1.5 0  23.75 1.5 0  24 1.5 0  24.25 1.5 0  24.5 1.5 0  24.75 1.5 0  25 1.5 0  0 1.75 0  0.25 1.75 0  0.5 1.75 0  0.75 1.75 0  1 1.75 0  1.25 1.75 0  1.5 1.75 0  1.75 1.75 0  2 1.75 0  2.25 1.75 0  2.5 1.75 0  2.75 1.75 0  3 1.75 0  3.25 1.75 0  3.5 1.75 0  3.75 1.75 0  4 1.75 0  4.25 1.75 0  4.5 1.75 0  4.75 1.75 0  5 1.75 0  5.25 1.75 0  5.5 1.75 0  5.75 1.75 0  6 1.75 0  6.25 1.75 0  6.5 1.75 0  6.75 1.75 0  7 1.75 0  7.25 1.75 0  7.5 1.75 0  7.75 1.75 0  8 1.75 0  8.25 1.75 0  8.5 1.75 0  8.75 1.75 0  9 1.75 0  9.25 1.75 0  9.5 1.75 0  9.75 1.75 0  10 1.75 0  10.25 1.75 0  10.5 1.75 0  10.75 1.75 0  11 1.75 0  11.25 1.75 0  11.5 1.75 0  11.75 1.75 0  12 1.75 0  12.25 1.75 0  12.5 1.75 0  12.75 1.75 0  13 1.75 0  13.25 1.75 0  13.5 1.75 0  13.75 1.75 0  14 1.75 0  14.25 1.75 0  14.5 1.75 0  14.75 1.75 0  15 1.75 0  15.25 1.75 0  15.5 1.75 0  15.75 1.75 0  16 1.75 0  16.25 1.75 0  16.5 1.75 0  16.75 1.75 0  17 1.75 0  17.25 1.75 0  17.5 1.75 0  17.75 1.75 0  18 1.75 0  18.25 1.75 0  18.5 1.75 0  18.75 1.75 0  19 1.75 0  19.25 1.75 0  19.5 1.75 0  19.75 1.75 0  20 1.75 0  20.25 1.75 0  20.5 1.75 0  20.75 1.75 0  21 1.75 0  21.25 1.75 0  21.5 1.75 0  21.75 1.75 0  22 1.75 0  22.25 1.75 0  22.5 1.75 0  22.75 1.75 0  23 1.75 0  23.25 1.75 0  23.5 1.75 0  23.75 1.75 0  24 1.75 0  24.25 1.75 0  24.5 1.75 0  24.75 1.75 0  25 1.75 0  0 2 0  0.25 2 0  0.5 2 0  0.75 2 0  1 2 0  1.25 2 0  1.5 2 0  1.75 2 0  2 2 0  2.25 2 0  2.5 2 0  2.75 2 0  3 2 0  3.25 2 0  3.5 2 0  3.75 2 0  4 2 0  4.25 2 0  4.5 2 0  4.75 2 0  5 2 0  5.25 2 0  5.5 2 0  5.75 2 0  6 2 0  6.25 2 0  6.5 2 0  6.75 2 0  7 2 0  7.25 2 0  7.5 2 0  7.75 2 0  8 2 0  8.25 2 0  8.5 2 0  8.75 2 0  9 2 0  9.25 2 0  9.5 2 0  9.75 2 0  10 2 0  10.25 2 0  10.5 2 0  10.75 2 0  11 2 0  11.25 2 0 
[...]
<PointData  Scalars="f_23"> 
<DataArray  type="Float64"  Name="f_23"  format="ascii">6.5535918869611284e-02  6.5347791712576431e-02  6.4966317529464079e-02  6.4339605729985067e-02  6.3422010030749904e-02  6.2162578162987668e-02  6.0505310849512481e-02  5.8392725955896653e-02  5.5770587346991196e-02  5.2593037927958414e-02  4.8827690840628872e-02  4.4460311668937012e-02  3.9498756044882483e-02  3.3975859026804757e-02  2.7951019416468451e-02  2.1510288481489632e-02  1.4764858482076131e-02  7.8479483887305551e-03  9.1019514543568512e-04  -5.8862311499418276e-03  -1.2374472118584483e-02  -1.8390395605834668e-02  -2.3780146535061875e-02  -2.8407393407505505e-02  -3.2159856589738176e-02  -3.4954759848134086e-02  -3.6742921557071893e-02  -3.7511286961431425e-02  -3.7283789453749452e-02  -3.6120511444462121e-02  -3.4115191675974148e-02  -3.1391195956874035e-02  -2.8096133697424031e-02  -2.4395364386370674e-02  -2.0464695715538689e-02  -1.6482625680277259e-02  -1.2622519929899221e-02  -9.0451371050632428e-03  -5.8919132487890566e-03  -3.2793874017619171e-03  -1.2950923350066334e-03  4.8519435518918929e-06  5.9631470556008878e-04  4.8590145238071813e-04  -2.9199301834302566e-04  -1.6795584122428131e-03  -3.6009880377541503e-03  -5.9684767404903603e-03  -8.6882871911554364e-03  -1.1666378662116618e-02  -1.4813148258775289e-02  -1.8046937955476277e-02  -2.1296101697936391e-02  -2.4499589861105495e-02  -2.7606174618410688e-02  -3.0572589488693187e-02  -3.3360971455309758e-02  -3.5936060752154338e-02  -3.8262623802556829e-02  -4.0303517922028360e-02  -4.2018718289468932e-02  -4.3365490599936600e-02  -4.4299733690887390e-02  -4.4778354913013782e-02  -4.4762397067601892e-02  -4.4220527294376512e-02  -4.3132439124594857e-02  -4.1491716893575871e-02  -3.9307767778802946e-02  -3.6606534599502735e-02  -3.3429849160186924e-02  -2.9833452929951598e-02  -2.5883877513528490e-02  -2.1654519408292754e-02  -1.7221342168104486e-02  -1.2658680019630393e-02  -8.0355938208305187e-03  -3.4131458755640152e-03  1.1571734884059767e-03  5.6337980251031129e-03  9.9843158543072661e-03  1.4183827250197647e-02  1.8212787983955491e-02  2.2054748379844270e-02  2.5694386968700030e-02  2.9116165878074966e-02  3.2303814944316910e-02  3.5240702224318951e-02  3.7910993542862377e-02  4.0301366882081358e-02  4.2402949611003937e-02  4.4213102315646374e-02  4.5736688516259796e-02  4.6986541889474862e-02  4.7982960189962544e-02  4.8752199354331234e-02  4.9324088675353747e-02  4.9729009623222513e-02  4.9994531135059625e-02  5.0141844073368150e-02  5.0181240751240572e-02  6.5118436227480411e-02  6.4984299832017409e-02  6.4614547178422785e-02  6.3989609604027511e-02  6.3071425587316363e-02  6.1811311113617838e-02  6.0154324521928475e-02  5.8043745049796126e-02  5.5426008852340537e-02  5.2255877732690623e-02  4.8501519088257360e-02  4.4149162608761644e-02  3.9207008838655057e-02  3.3708091041642615e-02  2.7711836954579575e-02  2.1304142595175438e-02  1.4595855566281762e-02  7.7196664765329564e-03  8.2551709781530913e-04  -5.9252571252102378e-03  -1.2366735878411443e-02  -1.8335786090055640e-02  -2.3679566908332655e-02  -2.8262729789840142e-02  -3.1973902627159316e-02  -3.4731101818160616e-02  -3.6485790716658896e-02  -3.7225387410340205e-02  -3.6974110914798429e-02  -3.5792137051321664e-02  -3.3773111071132796e-02  -3.1040133667695903e-02  -2.7740401804756624e-02  -2.4038746894951380e-02  -2.0110369822803106e-02  -1.6133122461240084e-02  -1.2279724040974677e-02  -8.7103222454499481e-03  -5.5658075981476285e-03  -2.9622613291740854e-03  -9.8685951975386785e-04  3.0452914671797734e-04  8.8792430231853913e-04  7.6999263815532377e-04  -1.4881668282397033e-05  -1.4089500161047471e-03  -3.3364966951652162e-03  -5.7098162106618885e-03  -8.4352620381304508e-03  -1.1418862344874879e-02  -1.4571053434043945e-02  -1.7810184409743798e-02  -2.1064586881031744e-02  -2.4273166069806222e-02  -2.7384635628149443e-02  -3.0355668021621193e-02  -3.3148347462328802e-02  -3.5727379210540935e-02  -3.8057519695209249e-02  -4.0101645344124873e-02  -4.1819780269044558e-02  -4.3169266238105033e-02  -4.4106099614483446e-02  -4.4587298747134088e-02  -4.4574021607069511e-02  -4.4035045180884358e-02  -4.2950158994008579e-02  -4.1313023003059487e-02  -3.9133095911864584e-02  -3.6436347452773070e-02  -3.3264614354119947e-02  -2.9673626235496853e-02  -2.5729892905423043e-02  -2.1506786280293289e-02  -1.7080248678140043e-02  -1.2524600308204261e-02  -7.9088959894118814e-03  -3.2941972961454649e-03  1.2680066499007961e-03  5.7361592700982972e-03  1.0077875596095496e-02  1.4268307973968093e-02  1.8287994793538959e-02  2.2120601032502657e-02  2.5750948674319794e-02  2.9163664036558817e-02  3.2342649681931145e-02  3.5271440005738161e-02  3.7934345096642480e-02  4.0318150902055476e-02  4.2414045851114655e-02  4.4219399452042965e-02  4.5739033245996423e-02  4.6985696044063309e-02  4.7979572286101842e-02  4.8746796671799285e-02  4.9317098171783674e-02  4.9720830839398905e-02  4.9985756363973941e-02  5.0134063082139219e-02  5.0180538355758440e-02  6.4061296663221953e-02  6.3939651557432170e-02  6.3575907198515344e-02  6.2951452232532831e-02  6.2031393783196088e-02  6.0769553893051505e-02  5.9113080312978461e-02  5.7007202896322454e-02  5.4400265902536403e-02  5.1248886455429715e-02  4.7522972642005258e-02  4.3210294628949063e-02  3.8320299141265939e-02  3.2886879287664955e-02  2.6969855239603761e-02  2.0654985979351375e-02  1.4052416497330482e-02  7.2935642528121234e-03  5.2655630354849793e-04  -6.0895653743558067e-03  -1.2391559139213224e-02  -1.8219237329948578e-02  -2.3422835776203143e-02  -2.7870070543035756e-02  -3.1452480231873810e-02  -3.4090706556730917e-02  -3.5738439243145396e-02  -3.6384834216292274e-02  -3.6055298438974710e-02  -3.4810615165329344e-02  -3.2744457422825904e-02  -2.9979405387584927e-02  -2.6661646393628356e-02  -2.2954595768386311e-02  -1.9031732151793591e-02  -1.5068989941597923e-02  -1.1237089548923187e-02  -7.6942076313997578e-03  -4.5793888239699689e-03  -2.0070733953118313e-03  -6.3059625876787795e-05  1.1978637659516753e-03  1.7524874215392205e-03  1.6079507154067689e-03  7.9884130642881950e-04  -6.1711458281870019e-04  -2.5643967656651481e-03  -4.9556113235255227e-03  -7.6974826636433680e-03  -1.0696417188057738e-02  -1.3863192826232728e-02  -1.7116430514405968e-02  -2.0384643021813913e-02  -2.3606818038312497e-02  -2.6731657367743585e-02  -2.9715742680387670e-02  -3.2521012576725218e-02  -3.5112001881748324e-02  -3.7453304264230595e-02  -3.9507672522727633e-02  -4.1235073249694422e-02  -4.2592876320009555e-02  -4.3537201669817997e-02  -4.4025285686023027e-02  -4.4018587060352624e-02  -4.3486244948764845e-02  -4.2408444288845645e-02  -4.0779241866109171e-02  -3.8608462988690084e-02  -3.5922386063394082e-02  -3.2763077965502270e-02  -2.9186408570937510e-02  -2.5258936683814844e-02  -2.1053999848440023e-02  -1.6647437699431378e-02  -1.2113418551122938e-02  -7.5208156527351681e-03  -2.9304958447816461e-03  1.6062488650698729e-03  6.0480577790314261e-03  1.0362744046449041e-02  1.4525669305805072e-02  1.8517603965820813e-02  2.2322478356236922e-02  2.5925419228254840e-02  2.9311395756841576e-02  3.2464681138010563e-02  3.5369188990817313e-02  3.8009591062107606e-02  4.0372987717838676e-02  4.2450805857919049e-02  4.4240554574335504e-02  4.5747083289161515e-02  4.6983057551052310e-02  4.7968483139839473e-02  4.8729252254250469e-02  4.9294835609422376e-02  4.9695381307992725e-02  4.9958591866334515e-02  5.0106833519853455e-02  5.0154976563619891e-02  6.2341616548055923e-02  6.2222598747674114e-02  6.1859452466460671e-02  6.1232643253100502e-02  6.0308897897135880e-02  5.9044460060472197e-02  5.7389205029356856e-02  5.5291263854621610e-02  5.2701973978077507e-02  4.9580933665402421e-02  4.5900887810695512e-02  4.1652147396257617e-02  3.6846244637926427e-02  3.1518548234298387e-02  2.5729607030373306e-02  1.9565054886314000e-02  1.3133992453246269e-02  6.5658584779853552e-03  5.9071266626510178e-06  -6.3904906654300231e-03  -1.2464415012915201e-02  -1.8060460900949479e-02  -2.3033888115093257e-02  -2.7257443524457626e-02  -3.0627469592138579e-02  -3.3068966615314152e-02  -3.4539347627500820e-02  -3.5030705198393929e-02  -3.4570490809218334e-02  -3.3220584866392462e-02  -3.1074806503115348e-02  -2.8254977299385992e-02  -2.4905713345475269e-02  -2.1188176886636708e-02  -1.7273071899384512e-02  -1.3333215098192045e-02  -9.5360508504851432e-03  -6.0364998801251983e-03  -2.9705319736448217e-03  -4.4982776932916621e-04  1.4421582305727395e-03  2.6525016734350367e-03  3.1593521463223564e-03  2.9707117823556560e-03  2.1215747114165006e-03  6.6968170656048914e-04  -1.3097427586659220e-03  -3.7298193618596266e-03  -6.4979123353185696e-03  -9.5211041239188169e-03  -1.2710806592873793e-02  -1.5986169761170465e-02  -1.9276086981994938e-02  -2.2519755468147565e-02  -2.5665914348589672e-02  -2.8671029380890944e-02  -3.1496806137288273e-02  -3.4107478219666754e-02  -3.6467326108051319e-02  -3.8538834802857504e-02  -4.0281800648874988e-02  -4.1653561948642760e-02  -4.2610371117978503e-02  -4.3109767690128573e-02  -4.3113671127607861e-02  -4.2591807694448064e-02  -4.1525029863580636e-02  -3.9908087286719331e-02  -3.7751465772606400e-02  -3.5082018444694205e-02  -3.1942258200978353e-02  -2.8388344542452520e-02  -2.4486959479703321e-02  -2.0311404891523395e-02  -1.5937348311524688e-02  -1.1438682051103674e-02  -6.8839359883529783e-03  -2.3336004068464492e-03  2.1614160935123812e-03  6.5601282544925591e-03  1.0830714583324972e-02  1.4948901095529373e-02  1.8895838035405239e-02  2.2655869295871801e-02  2.6214582951381991e-02  2.9557461638123363e-02  3.2669335216809037e-02  3.5534693837990371e-02  3.8138769733311151e-02  4.0469163771818736e-02  4.2517698013390066e-02  4.4282132141689981e-02  4.5767395784267403e-02  4.6986057663869880e-02  4.7957865543891642e-02  4.8708331059742399e-02  4.9266480283212462e-02  4.9662023404463476e-02  4.9922296518170893e-02  5.0069376987920015e-02  5.0117737728079377e-02  5.9959664807706183e-02  5.9840642322582356e-02  5.9475202441939233e-02  5.8843962177290876e-02  5.7915327805947242e-02  5.6648219059349338e-02  5.4995814206538082e-02  5.2909947431484999e-02  5.0345879579521656e-02  4.7267170203909990e-02  4.3650363718784044e-02  3.9489193898417645e-02  3.4798018495023376e-02  2.9614222184752050e-02  2.3999372065652627e-02  1.8038974903289408e-02  1.1840766944397401e-02  5.5315608728913326e-03  -7.4722653497182891e-04  -6.8451471054440591e-03  -1.2609093171946577e-02  -1.7890107393970560e-02  -2.2550237443043679e-02  -2.6469041784323192e-02  -2.9549381467730441e-02  -3.1722185560246370e-02  -3.2949946807896889e-02  -3.3228780922459525e-02  -3.2588960325573846e-02  -3.1093906429260906e-02  -2.8837691544285487e-02  -2.5941162542337210e-02  -2.2546854896724720e-02  -1.8812918971605253e-02  -1.4906330392985213e-02  -1.0995701046113573e-02  -7.2440428271650830e-03  -3.8018575863803940e-03  -8.0092834082919680e-04  1.6508357109037582e-03  3.4731972326822540e-03  4.6158050542467249e-03  5.0586983734566384e-03  4.8110931275597828e-03  3.9085708224252278e-03  2.4089162803341705e-03  3.8696229484785465e-04  -2.0711169580615333e-03  -4.8735772131382367e-03  -7.9284561070971822e-03  -1.1148074494872881e-02  -1.4452355057339394e-02  -1.7770762433367400e-02  -2.1042827115407500e-02  -2.4217376442109684e-02  -2.7250740641863263e-02  -3.0104312266877504e-02  -3.2741899969441789e-02  -3.5127324873524129e-02  -3.7222659183470334e-02  -3.8987408494408744e-02  -4.0378803971972001e-02  -4.1353215122356693e-02  -4.1868537682742055e-02  -4.1887273714736599e-02  -4.1379919507147055e-02  -4.0328224282439117e-02  -3.8727885934573103e-02  -3.6590309252096428e-02  -3.3943160448861392e-02  -3.0829596113394898e-02  -2.7306206706234168e-02  -2.3439873430134137e-02  -1.9303871410471952e-02  -1.4973643110539430e-02  -1.0522700744689239e-02  -6.0190898246345126e-03  -1.5227613900689705e-03  2.9159299872703569e-03  7.2565427089239919e-03  1.1467780726234627e-02  1.5525885440479770e-02  1.9412531911569095e-02  2.3112621982921275e-02  2.6612354590080316e-02  2.9897884436651055e-02  3.2954766062246170e-02  3.5768239321669622e-02  3.8324266378521640e-02  4.0611101769428073e-02  4.2621085186454931e-02  4.4352304785420515e-02  4.5809792768373409e-02  4.7005982030432047e-02  4.7960262328584961e-02  4.8697610162279470e-02  4.9246408205144358e-02  4.9635696725201260e-02  4.9892191454248891e-02  5.0037442530011994e-02  5.0085482188107003e-02  5.6926287267664542e-02  5.6806585402416378e-02  5.6437732759314012e-02  5.5801302702752513e-02  5.4867797481843610e-02  5.3599219822666820e-02  5.1952589161676305e-02  4.9884116069797139e-02  4.7353751671450339e-02  4.4329825258435311e-02  4.0793476938545868e-02  3.6742593188693738e-02  3.2194967914154202e-02  2.7190443023393230e-02  2.1791831532893720e-02  1.6084492102783718e-02  1.0174504147832981e-02  4.1854826686567080e-03  -1.7458349587585584e-03  -7.4750100185358125e-03  -1.2856036930379140e-02  -1.7747844180283801e-02  -2.2020789056947321e-02  -2.5562776712210487e-02  -2.8284664135145351e-02  -3.0124661351207706e-02  -3.1051508201448853e-02  -3.1066277663376510e-02  -3.0202729237034574e-02  -2.8526204070494679e-02  -2.6131115451839333e-02  -2.3137144409645934e-02  -1.9684301938985939e-02  -1.5927068204572552e-02  -1.2027865179458518e-02  -8.1501609412421676e-03  -4.4515377776478343e-03  -1.0770775012553648e-03  1.8465793565564338e-03  4.2161631866304162e-03  5.9554015894942120e-03  7.0171215843164566e-03  7.3837025791372544e-03  7.0658691979884492e-03  6.0999375319079506e-03  4.5437519735017449e-03  2.4716596957230076e-03  -3.1047089223496222e-05  -2.8737463473042894e-03  -5.9656862044801633e-03  -9.2203486053039664e-03  -1.2558653425925685e-02  -1.5910814171595729e-02  -1.9216812078170206e-02  -2.2425613881140810e-02  -2.5493400269879712e-02  -2.8381179519673689e-02  -3.1052220671819047e-02  -3.3469745632365017e-02  -3.5595269346761951e-02  -3.7387878367334149e-02  -3.8804603279225358e-02  -3.9801886617409687e-02  -4.0337994413640700e-02  -4.0376085606416444e-02  -3.9887556074747248e-02  -3.8855225426988924e-02  -3.7275941345423995e-02  -3.5162237913578760e-02  -3.2542793708329083e-02  -2.9461579102817988e-02  -2.5975742037773857e-02  -2.2152436698966181e-02  -1.8064929323577335e-02  -1.3788401864684030e-02  -9.3959051672684278e-03  -4.9548839933398264e-03  -5.2461065959375679e-04  3.8452655169763494e-03  8.1150005142477041e-03  1.2253974579141109e-02  1.6239090073483696e-02  2.0052687963172462e-02  2.3680367262537194e-02  2.7109077993157645e-02  3.0325789681631965e-02  3.3316925698749070e-02  3.6068616630328759e-02  3.8567684592888958e-02  4.0803146385656526e-02  4.2767935024957966e-02  4.4460499285587325e-02  4.5885954691691946e-02  4.7056524229068614e-02  4.7991112702678425e-02  4.8713989117570293e-02  4.9252687237790152e-02  4.9635355332637771e-02  4.9887873639998019e-02  5.0031098014920034e-02  5.0078573577195584e-02  5.3261325271055579e-02  5.3140985848505316e-02  5.2768822450109450e-02  5.2127804257987187e-02  5.1190901115724413e-02  4.9923576033616128e-02  4.8287133300549762e-02  4.6242682858876151e-02  4.3755450738016316e-02  4.0799149896680501e-02  3.7360120407990055e-02  3.3440954256689442e-02  2.9063340609064056e-02  2.4269903755771049e-02  1.9124858192799563e-02  1.3713372231998967e-02  8.1396102067610634e-03  2.5235090508518364e-03  -3.0035685995798808e-03  -8.3040830986318113e-03  -1.3240181549668684e-02  -1.7679845894960629e-02  -2.1502975875663480e-02  -2.4607065048457541e-02  -2.6912159782176062e-02  -2.8364841859163995e-02  -2.8941038142599886e-02  -2.8647528667863058e-02  -2.7522091534182572e-02  -2.5632285254796237e-02  -2.3072925286437104e-02  -1.9962361809125827e-02  -1.6437712064196107e-02  -1.2649244249566866e-02  -8.7541516255611376e-03  -4.9099938944045613e-03  -1.2681150182944107e-03  2.0326320985790004e-03  4.8715184295339102e-03  7.1506092337517745e-03  8.7981923190824981e-03  9.7707503448389021e-03  1.0053353404626609e-02  9.6584574593997965e-03  8.6232146788510385e-03  7.0055224438416563e-03  4.8791458183887774e-03  2.3283304480181703e-03  -5.5763271879954958e-04  -3.6894310570259777e-03  -6.9819330118728647e-03  -1.0357257049908824e-02  -1.3746526174057689e-02  -1.7090280476313027e-02  -2.0337675640854088e-02  -2.3444733760689791e-02  -2.6372016904015364e-02  -2.9082150507324350e-02  -3.1537625907273777e-02  -3.3699259134140451e-02  -3.5525583349890387e-02  -3.6973317845827899e-02  -3.7998904425710488e-02  -3.8560951524735834e-02  -3.8623296535743139e-02  -3.8158303945711437e-02  -3.7149972884877425e-02  -3.5596438409451529e-02  -3.3511515364584750e-02  -3.0925044331344142e-02  -2.7881942284618703e-02  -2.4440018029698345e-02  -2.0666763758516601e-02  -1.6635458962303493e-02  -1.2421004317188414e-02  -8.0959295433155106e-03  -3.7269867296347470e-03  6.2734624796215198e-04  4.9182563115712776e-03  9.1068357816309568e-03  1.3163282100533190e-02  1.7065298081519450e-02  2.0796026972780893e-02  2.4341897641550893e-02  2.7690739757078042e-02  3.0830460838999100e-02  3.3748467964486183e-02  3.6431884117429994e-02  3.8868473049206230e-02  4.1048067559993247e-02  4.2964211766427042e-02  4.4615690169799022e-02  4.6007630041061474e-02  4.7151926007738119e-02  4.8066836910060265e-02  4.8775729633750105e-02  4.9305074142106303e-02  4.9681909151788974e-02  4.9931081753626184e-02  5.0072604358979242e-02  5.0119463468432726e-02  4.8994613458277401e-02  4.8874051837573193e-02  4.8499608807882018e-02  4.7855868300731172e-02  4.6918507587618188e-02  4.5656710869781986e-02  4.4036367317526706e-02  4.2023831957198290e-02  3.9589988957890343e-02  3.6714336911675666e-02  3.3388811230450212e-02  2.9621069290620694e-02  2.5436989781706196e-02  2.0882178848276985e-02  1.6022331170325931e-02  1.0942362050402927e-02  5.7443034443686557e-03  5.4403784211694078e-04  -4.5329770824388740e-03  -9.3567697952344087e-03  -1.3798423790896385e-02  -1.7735840934967301e-02  -2.1059374951180411e-02  -2.3677023290088462e-02  -2.5518899248690330e-02  -2.6540755930719917e-02  -2.6726393122794075e-02  -2.6088841037703512e-02  -2.4670275893347780e-02  -2.2540678133280454e-02  -1.9795293608180053e-02  -1.6551001926525758e-02  -1.2941736202073841e-02  -9.1131363693716088e-03  -5.2166549681552984e-03  -1.4033690577057718e-03  2.1822178986344440e-03  5.4080789581760396e-03  8.1599587800811960e-03  1.0345759854908676e-02  1.1898753646738695e-02  1.2779410289920712e-02  1.2975724567938347e-02  1.2502019921390297e-02  1.1396328439253447e-02  9.7165623698642102e-03  7.5357987507039580e-03  4.9370798758528057e-03  2.0081765220422397e-03  -1.1632402926379497e-03  -4.4936228322395083e-03  -7.9064639822666247e-03  -1.1333937034163334e-02  -1.4717236903322932e-02  -1.8005753944050171e-02  -2.1155346345408770e-02  -2.4126077392709274e-02  -2.6879836901756802e-02  -2.9378265247740950e-02  -3.1581343955874489e-02  -3.3446915990487422e-02  -3.4931264727001615e-02  -3.5990730315386188e-02  -3.6584194891265152e-02  -3.6676142562246695e-02  -3.6239912243771676e-02  -3.5260722500458107e-02  -3.3738062760261443e-02  -3.1687113072010033e-02  -2.9138966799535770e-02  -2.6139573340914796e-02  -2.2747472978207704e-02  -1.9030543119010528e-02  -1.5062094863584032e-02  -1.0916734680905617e-02  -6.6664274133571740e-03  -2.3771607833337634e-03  1.8934768096195375e-03  6.0976213757878801e-03  1.0197326502575878e-02  1.4163738410474818e-02  1.7975493777071697e-02  2.1616669131012279e-02  2.5074647883899345e-02  2.8338253846154540e-02  3.1396432587718008e-02  3.4237655711846969e-02  3.6850094832465506e-02  3.9222481374369102e-02  4.1345454683281414e-02  4.3213120787216730e-02  4.4824508645525112e-02  4.6184624242341196e-02  4.7304862587420310e-02  4.8202634102133671e-02  4.8900180376509922e-02  4.9422677299554907e-02  4.9795833061068870e-02  5.0043268600047916e-02  5.0184007319489514e-02  5.0230394263035202e-02  4.4167430836122332e-02  4.4047302345969673e-02  4.3672349784820277e-02  4.3028855551749533e-02  4.20953074