<?xml version="1.0"?>
<VTKFile type="UnstructuredGrid"  version="0.1"  >
<UnstructuredGrid>
<Piece  NumberOfPoints="2601" NumberOfCells="5000">
<Points>
<DataArray  type="Float64"  NumberOfComponents="3"  format="ascii">0 0 0  0.2 0 0  0.4 0 0  0.6 0 0  0.8 0 0  1 0 0  1.2 0 0  1.4 0 0  1.6 0 0  1.8 0 0  2 0 0  2.2 0 0  2.4 0 0  2.6 0 0  2.8 0 0  3 0 0  3.2 0 0  3.4 0 0  3.6 0 0  3.8 0 0  4 0 0  4.2 0 0  4.4 0 0  4.6 0 0  4.8 0 0  5 0 0  5.2 0 0  5.4 0 0  5.6 0 0  5.8 0 0  6 0 0  6.2 0 0  6.4 0 0  6.6 0 0  6.8 0 0  7 0 0  7.2 0 0  7.4 0 0  7.6 0 0  7.8 0 0  8 0 0  8.199999999999999 0 0  8.4 0 0  8.6 0 0  8.800000000000001 0 0  9 0 0  9.199999999999999 0 0  9.4 0 0  9.6 0 0  9.800000000000001 0 0  10 0 0  0 0.2 0  0.2 0.2 0  0.4 0.2 0  0.6 0.2 0  0.8 0.2 0  1 0.2 0  1.2 0.2 0  1.4 0.2 0  1.6 0.2 0  1.8 0.2 0  2 0.2 0  2.2 0.2 0  2.4 0.2 0  2.6 0.2 0  2.8 0.2 0  3 0.2 0  3.2 0.2 0  3.4 0.2 0  3.6 0.2 0  3.8 0.2 0  4 0.2 0  4.2 0.2 0  4.4 0.2 0  4.6 0.2 0  4.8 0.2 0  5 0.2 0  5.2 0.2 0  5.4 0.2 0  5.6 0.2 0  5.8 0.2 0  6 0.2 0  6.2 0.2 0  6.4 0.2 0  6.6 0.2 0  6.8 0.2 0  7 0.2 0  7.2 0.2 0  7.4 0.2 0  7.6 0.2 0  7.8 0.2 0  8 0.2 0  8.199999999999999 0.2 0  8.4 0.2 0  8.6 0.2 0  8.800000000000001 0.2 0  9 0.2 0  9.199999999999999 0.2 0  9.4 0.2 0  9.6 0.2 0  9.800000000000001 0.2 0  10 0.2 0  0 0.4 0  0.2 0.4 0  0.4 0.4 0  0.6 0.4 0  0.8 0.4 0  1 0.4 0  1.2 0.4 0  1.4 0.4 0  1.6 0.4 0  1.8 0.4 0  2 0.4 0  2.2 0.4 0  2.4 0.4 0  2.6 0.4 0  2.8 0.4 0  3 0.4 0  3.2 0.4 0  3.4 0.4 0  3.6 0.4 0  3.8 0.4 0  4 0.4 0  4.2 0.4 0  4.4 0.4 0  4.6 0.4 0  4.8 0.4 0  5 0.4 0  5.2 0.4 0  5.4 0.4 0  5.6 0.4 0  5.8 0.4 0  6 0.4 0  6.2 0.4 0  6.4 0.4 0  6.6 0.4 0  6.8 0.4 0  7 0.4 0  7.2 0.4 0  7.4 0.4 0  7.6 0.4 0  7.8 0.4 0  8 0.4 0  8.199999999999999 0.4 0  8.4 0.4 0  8.6 0.4 0  8.800000000000001 0.4 0  9 0.4 0  9.199999999999999 0.4 0  9.4 0.4 0  9.6 0.4 0  9.800000000000001 0.4 0  10 0.4 0  0 0.6 0  0.2 0.6 0  0.4 0.6 0  0.6 0.6 0  0.8 0.6 0  1 0.6 0  1.2 0.6 0  1.4 0.6 0  1.6 0.6 0  1.8 0.6 0  2 0.6 0  2.2 0.6 0  2.4 0.6 0  2.6 0.6 0  2.8 0.6 0  3 0.6 0  3.2 0.6 0  3.4 0.6 0  3.6 0.6 0  3.8 0.6 0  4 0.6 0  4.2 0.6 0  4.4 0.6 0  4.6 0.6 0  4.8 0.6 0  5 0.6 0  5.2 0.6 0  5.4 0.6 0  5.6 0.6 0  5.8 0.6 0  6 0.6 0  6.2 0.6 0  6.4 0.6 0  6.6 0.6 0  6.8 0.6 0  7 0.6 0  7.2 0.6 0  7.4 0.6 0  7.6 0.6 0  7.8 0.6 0  8 0.6 0  8.199999999999999 0.6 0  8.4 0.6 0  8.6 0.6 0  8.800000000000001 0.6 0  9 0.6 0  9.199999999999999 0.6 0  9.4 0.6 0  9.6 0.6 0  9.800000000000001 0.6 0  10 0.6 0  0 0.8 0  0.2 0.8 0  0.4 0.8 0  0.6 0.8 0  0.8 0.8 0  1 0.8 0  1.2 0.8 0  1.4 0.8 0  1.6 0.8 0  1.8 0.8 0  2 0.8 0  2.2 0.8 0  2.4 0.8 0  2.6 0.8 0  2.8 0.8 0  3 0.8 0  3.2 0.8 0  3.4 0.8 0  3.6 0.8 0  3.8 0.8 0  4 0.8 0  4.2 0.8 0  4.4 0.8 0  4.6 0.8 0  4.8 0.8 0  5 0.8 0  5.2 0.8 0  5.4 0.8 0  5.6 0.8 0  5.8 0.8 0  6 0.8 0  6.2 0.8 0  6.4 0.8 0  6.6 0.8 0  6.8 0.8 0  7 0.8 0  7.2 0.8 0  7.4 0.8 0  7.6 0.8 0  7.8 0.8 0  8 0.8 0  8.199999999999999 0.8 0  8.4 0.8 0  8.6 0.8 0  8.800000000000001 0.8 0  9 0.8 0  9.199999999999999 0.8 0  9.4 0.8 0  9.6 0.8 0  9.800000000000001 0.8 0  10 0.8 0  0 1 0  0.2 1 0  0.4 1 0  0.6 1 0  0.8 1 0  1 1 0  1.2 1 0  1.4 1 0  1.6 1 0  1.8 1 0  2 1 0  2.2 1 0  2.4 1 0  2.6 1 0  2.8 1 0  3 1 0  3.2 1 0  3.4 1 0  3.6 1 0  3.8 1 0  4 1 0  4.2 1 0  4.4 1 0  4.6 1 0  4.8 1 0  5 1 0  5.2 1 0  5.4 1 0  5.6 1 0  5.8 1 0  6 1 0  6.2 1 0  6.4 1 0  6.6 1 0  6.8 1 0  7 1 0  7.2 1 0  7.4 1 0  7.6 1 0  7.8 1 0  8 1 0  8.199999999999999 1 0  8.4 1 0  8.6 1 0  8.800000000000001 1 0  9 1 0  9.199999999999999 1 0  9.4 1 0  9.6 1 0  9.800000000000001 1 0  10 1 0  0 1.2 0  0.2 1.2 0  0.4 1.2 0  0.6 1.2 0  0.8 1.2 0  1 1.2 0  1.2 1.2 0  1.4 1.2 0  1.6 1.2 0  1.8 1.2 0  2 1.2 0  2.2 1.2 0  2.4 1.2 0  2.6 1.2 0  2.8 1.2 0  3 1.2 0  3.2 1.2 0  3.4 1.2 0  3.6 1.2 0  3.8 1.2 0  4 1.2 0  4.2 1.2 0  4.4 1.2 0  4.6 1.2 0  4.8 1.2 0  5 1.2 0  5.2 1.2 0  5.4 1.2 0  5.6 1.2 0  5.8 1.2 0  6 1.2 0  6.2 1.2 0  6.4 1.2 0  6.6 1.2 0  6.8 1.2 0  7 1.2 0  7.2 1.2 0  7.4 1.2 0  7.6 1.2 0  7.8 1.2 0  8 1.2 0  8.199999999999999 1.2 0  8.4 1.2 0  8.6 1.2 0  8.800000000000001 1.2 0  9 1.2 0  9.199999999999999 1.2 0  9.4 1.2 0  9.6 1.2 0  9.800000000000001 1.2 0  10 1.2 0  0 1.4 0  0.2 1.4 0  0.4 1.4 0  0.6 1.4 0  0.8 1.4 0  1 1.4 0  1.2 1.4 0  1.4 1.4 0  1.6 1.4 0  1.8 1.4 0  2 1.4 0  2.2 1.4 0  2.4 1.4 0  2.6 1.4 0  2.8 1.4 0  3 1.4 0  3.2 1.4 0  3.4 1.4 0  3.6 1.4 0  3.8 1.4 0  4 1.4 0  4.2 1.4 0  4.4 1.4 0  4.6 1.4 0  4.8 1.4 0  5 1.4 0  5.2 1.4 0  5.4 1.4 0  5.6 1.4 0  5.8 1.4 0  6 1.4 0  6.2 1.4 0  6.4 1.4 0  6.6 1.4 0  6.8 1.4 0  7 1.4 0  7.2 1.4 0  7.4 1.4 0  7.6 1.4 0  7.8 1.4 0  8 1.4 0  8.199999999999999 1.4 0  8.4 1.4 0  8.6 1.4 0  8.800000000000001 1.4 0  9 1.4 0  9.199999999999999 1.4 0  9.4 1.4 0  9.6 1.4 0  9.800000000000001 1.4 0  10 1.4 0  0 1.6 0  0.2 1.6 0  0.4 1.6 0  0.6 1.6 0  0.8 1.6 0  1 1.6 0  1.2 1.6 0  1.4 1.6 0  1.6 1.6 0  1.8 1.6 0  2 1.6 0  2.2 1.6 0  2.4 1.6 0  2.6 1.6 0  2.8 1.6 0  3 1.6 0  3.2 1.6 0  3.4 1.6 0  3.6 1.6 0  3.8 1.6 0  4 1.6 0  4.2 1.6 0  4.4 1.6 0  4.6 1.6 0  4.8 1.6 0  5 1.6 0  5.2 1.6 0  5.4 1.6 0  5.6 1.6 0  5.8 1.6 0  6 1.6 0  6.2 1.6 0  6.4 1.6 0  6.6 1.6 0  6.8 1.6 0  7 1.6 0  7.2 1.6 0  7.4 1.6 0  7.6 1.6 0  7.8 1.6 0  8 1.6 0  8.199999999999999 1.6 0  8.4 1.6 0  8.6 1.6 0  8.800000000000001 1.6 0  9 1.6 0  9.199999999999999 1.6 0  9.4 1.6 0  9.6 1.6 0  9.800000000000001 1.6 0  10 1.6 0  0 1.8 0  0.2 1.8 0  0.4 1.8 0  0.6 1.8 0  0.8 1.8 0  1 1.8 0  1.2 1.8 0  1.4 1.8 0  1.6 1.8 0  1.8 1.8 0  2 1.8 0  2.2 1.8 0  2.4 1.8 0  2.6 1.8 0  2.8 1.8 0  3 1.8 0  3.2 1.8 0  3.4 1.8 0  3.6 1.8 0  3.8 1.8 0  4 1.8 0  4.2 1.8 0  4.4 1.8 0  4.6 1.8 0  4.8 1.8 0  5 1.8 0  5.2 1.8 0  5.4 1.8 0  5.6 1.8 0  5.8 1.8 0  6 1.8 0  6.2 1.8 0  6.4 1.8 0  6.6 1.8 0  6.8 1.8 0  7 1.8 0  7.2 1.8 0  7.4 1.8 0  7.6 1.8 0  7.8 1.8 0  8 1.8 0  8.199999999999999 1.8 0  8.4 1.8 0  8.6 1.8 0  8.800000000000001 1.8 0  9 1.8 0  9.199999999999999 1.8 0  9.4 1.8 0  9.6 1.8 0  9.800000000000001 1.8 0  10 1.8 0  0 2 0  0.2 2 0  0.4 2 0  0.6 2 0  0.8 2 0  1 2 0  1.2 2 0  1.4 2 0  1.6 2 0  1.8 2 0  2 2 0  2.2 2 0  2.4 2 0  2.6 2 0  2.8 2 0  3 2 0  3.2 2 0  3.4 2 0  3.6 2 0  3.8 2 0  4 2 0  4.2 2 0  4.4 2 0  4.6 2 0  4.8 2 0  5 2 0  5.2 2 0  5.4 2 0  5.6 2 0  5.8 2 0  6 2 0  6.2 2 0  6.4 2 0  6.6 2 0  6.8 2 0  7 2 0  7.2 2 0  7.4 2 0  7.6 2 0  7.8 2 0  8 2 0  8.199999999999999 2 0  8.4 2 0  8.6 2 0  8.800000000000001 2 0  9 2 0  9.199999999999999 2 0  9.4 2 0  9.6 2 0  9.800000000000001 2 0  10 2 0  0 2.2 0  0.2 2.2 0  0.4 2.2 0  0.6 2.2 0  0.8 2.2 0  1 2.2 0  1.2 2.2 0  1.4 2.2 0  1.6 2.2 0  1.8 2.2 0  2 2.2 0  2.2 2.2 0  2.4 2.2 0  2.6 2.2 0  2.8 2.2 0  3 2.2 0  3.2 2.2 0  3.4 2.2 0  3.6 2.2 0  3.8 2.2 0  4 2.2 0  4.2 2.2 0  4.4 2.2 0  4.6 2.2 0  4.8 2.2 0  5 2.2 0  5.2 2.2 0  5.4 2.2 0  5.6 2.2 0  5.8 2.2 0  6 2.2 0  6.2 2.2 0  6.4 2.2 0  6.6 2.2 0  6.8 2.2 0  7 2.2 0  7.2 2.2 0  7.4 2.2 0  7.6 2.2 0  7.8 2.2 0  8 2.2 0  8.199999999999999 2.2 0  8.4 2.2 0  8.6 2.2 0  8.800000000000001 2.2 0  9 2.2 0  9.199999999999999 2.2 0  9.4 2.2 0  9.6 2.2 0  9.800000000000001 2.2 0  10 2.2 0  0 2.4 0  0.2 2.4 0  0.4 2.4 0  0.6 2.4 0  0.8 2.4 0  1 2.4 0  1.2 2.4 0  1.4 2.4 0  1.6 2.4 0  1.8 2.4 0  2 2.4 0  2.2 2.4 0  2.4 2.4 0  2.6 2.4 0  2.8 2.4 0  3 2.4 0  3.2 2.4 0  3.4 2.4 0  3.6 2.4 0  3.8 2.4 0  4 2.4 0  4.2 2.4 0  4.4 2.4 0  4.6 2.4 0  4.8 2.4 0  5 2.4 0  5.2 2.4 0  5.4 2.4 0  5.6 2.4 0  5.8 2.4 0  6 2.4 0  6.2 2.4 0  6.4 2.4 0  6.6 2.4 0  6.8 2.4 0  7 2.4 0  7.2 2.4 0  7.4 2.4 0  7.6 2.4 0  7.8 2.4 0  8 2.4 0  8.199999999999999 2.4 0  8.4 2.4 0  8.6 2.4 0  8.800000000000001 2.4 0  9 2.4 0  9.199999999999999 2.4 0  9.4 2.4 0  9.6 2.4 0  9.800000000000001 2.4 0  10 2.4 0  0 2.6 0  0.2 2.6 0  0.4 2.6 0  0.6 2.6 0  0.8 2.6 0  1 2.6 0  1.2 2.6 0  1.4 2.6 0  1.6 2.6 0  1.8 2.6 0  2 2.6 0  2.2 2.6 0  2.4 2.6 0  2.6 2.6 0  2.8 2.6 0  3 2.6 0  3.2 2.6 0  3.4 2.6 0  3.6 2.6 0  3.8 2.6 0  4 2.6 0  4.2 2.6 0  4.4 2.6 0  4.6 2.6 0  4.8 2.6 0  5 2.6 0  5.2 2.6 0  5.4 2.6 0  5.6 2.6 0  5.8 2.6 0  6 2.6 0  6.2 2.6 0  6.4 2.6 0  6.6 2.6 0  6.8 2.6 0  7 2.6 0  7.2 2.6 0  7.4 2.6 0  7.6 2.6 0  7.8 2.6 0  8 2.6 0  8.199999999999999 2.6 0  8.4 2.6 0  8.6 2.6 0  8.800000000000001 2.6 0  9 2.6 0  9.199999999999999 2.6 0  9.4 2.6 0  9.6 2.6 0  9.800000000000001 2.6 0  10 2.6 0  0 2.8 0  0.2 2.8 0  0.4 2.8 0  0.6 2.8 0  0.8 2.8 0  1 2.8 0  1.2 2.8 0  1.4 2.8 0  1.6 2.8 0  1.8 2.8 0  2 2.8 0  2.2 2.8 0  2.4 2.8 0  2.6 2.8 0  2.8 2.8 0  3 2.8 0  3.2 2.8 0  3.4 2.8 0  3.6 2.8 0  3.8 2.8 0  4 2.8 0  4.2 2.8 0  4.4 2.8 0  4.6 2.8 0  4.8 2.8 0  5 2.8 0  5.2 2.8 0  5.4 2.8 0  5.6 2.8 0  5.8 2.8 0  6 2.8 0  6.2 2.8 0  6.4 2.8 0  6.6 2.8 0  6.8 2.8 0  7 2.8 0  7.2 2.8 0  7.4 2.8 0  7.6 2.8 0  7.8 2.8 0  8 2.8 0  8.199999999999999 2.8 0  8.4 2.8 0  8.6 2.8 0  8.800000000000001 2.8 0  9 2.8 0  9.199999999999999 2.8 0  9.4 2.8 0  9.6 2.8 0  9.800000000000001 2.8 0  10 2.8 0  0 3 0  0.2 3 0  0.4 3 0  0.6 3 0  0.8 3 0  1 3 0  1.2 3 0  1.4 3 0  1.6 3 0  1.8 3 0  2 3 0  2.2 3 0  2.4 3 0  2.6 3 0  2.8 3 0  3 3 0  3.2 3 0  3.4 3 0  3.6 3 0  3.8 3 0  4 3 0  4.2 3 0  4.4 3 0  4.6 3 0  4.8 3 0  5 3 0  5.2 3 0  5.4 3 0  5.6 3 0  5.8 3 0  6 3 0  6.2 3 0  6.4 3 0  6.6 3 0  6.8 3 0  7 3 0  7.2 3 0  7.4 3 0  7.6 3 0  7.8 3 0  8 3 0  8.199999999999999 3 0  8.4 3 0  8.6 3 0  8.800000000000001 3 0  9 3 0  9.199999999999999 3 0  9.4 3 0  9.6 3 0  9.800000000000001 3 0  10 3 0  0 3.2 0  0.2 3.2 0  0.4 3.2 0  0.6 3.2 0  0.8 3.2 0  1 3.2 0  1.2 3.2 0  1.4 3.2 0  1.6 3.2 0  1.8 3.2 0  2 3.2 0  2.2 3.2 0  2.4 3.2 0  2.6 3.2 0  2.8 3.2 0  3 3.2 0  3.2 3.2 0  3.4 3.2 0  3.6 3.2 0  3.8 3.2 0  4 3.2 0  4.2 3.2 0  4.4 3.2 0  4.6 3.2 0  4.8 3.2 0  5 3.2 0  5.2 3.2 0  5.4 3.2 0  5.6 3.2 0  5.8 3.2 0  6 3.2 0  6.2 3.2 0  6.4 3.2 0  6.6 3.2 0  6.8 3.2 0  7 3.2 0  7.2 3.2 0  7.4 3.2 0  7.6 3.2 0  7.8 3.2 0  8 3.2 0  8.199999999999999 3.2 0  8.4 3.2 0  8.6 3.2 0  8.800000000000001 3.2 0  9 3.2 0  9.199999999999999 3.2 0  9.4 3.2 0  9.6 3.2 0  9.800000000000001 3.2 0  10 3.2 0  0 3.4 0  0.2 3.4 0  0.4 3.4 0  0.6 3.4 0  0.8 3.4 0  1 3
[...]
<PointData  Scalars="f_17"> 
<DataArray  type="Float64"  Name="f_17"  format="ascii">-9.8809027126964488e-01  -9.8788499830805354e-01  -9.8738979445818909e-01  -9.8655616021333581e-01  -9.8532767400816257e-01  -9.8362651723648076e-01  -9.8134581827593503e-01  -9.7834179978926317e-01  -9.7442406020254191e-01  -9.6934324627131041e-01  -9.6277561288126356e-01  -9.5430414371343719e-01  -9.4339624117856424e-01  -9.2937865896278449e-01  -9.1141155629992321e-01  -8.8846555467944299e-01  -8.5930871337881121e-01  -8.2251445352229791e-01  -7.7650613418969117e-01  -7.1965756055382646e-01  -6.5046777615498685e-01  -5.6781793294073457e-01  -4.7129293326689115e-01  -3.6151118302132473e-01  -2.4036439086830805e-01  -1.1105210086505748e-01  2.2169033573340619e-02  1.5450854232004868e-01  2.8131326194560174e-01  3.9869503788063004e-01  5.0394570686673890e-01  5.9566481120892345e-01  6.7363335076366648e-01  7.3853321182815568e-01  7.9162092904102332e-01  8.3443463285324515e-01  8.6857249017481331e-01  8.9554866248730303e-01  9.1671474975446909e-01  9.3322854918663856e-01  9.4605287143344619e-01  9.5597097938251530e-01  9.6360944682908156e-01  9.6946275943966165e-01  9.7391651376836119e-01  9.7726770885705661e-01  9.7974157732345812e-01  9.8150483929908439e-01  9.8267516642608665e-01  9.8332530715769495e-01  9.8347392068065120e-01  -9.8788499830805354e-01  -9.8771355098229197e-01  -9.8722139480893156e-01  -9.8638138280585630e-01  -9.8514153256641468e-01  -9.8342471072168103e-01  -9.8112374002315450e-01  -9.7809415481003081e-01  -9.7414461952520259e-01  -9.6902463275827289e-01  -9.6240910465085572e-01  -9.5387951658420622e-01  -9.4290169930853818e-01  -9.2880093513155981e-01  -9.1073630113930670e-01  -8.8767817000552640e-01  -8.5839579818066569e-01  -8.2146598386558767e-01  -7.7531833624366253e-01  -7.1833611255034180e-01  -6.4903051119094102e-01  -5.6629578710151496e-01  -4.6972786750262113e-01  -3.5995061853171756e-01  -2.3885335243249542e-01  -1.0962593523463278e-01  2.3488219020240377e-02  1.5571043430563283e-01  2.8239451193053883e-01  3.9965436541604960e-01  5.0478149358995061e-01  5.9637551236424924e-01  6.7421931026665871e-01  7.3899821235400698e-01  7.9197260500104805e-01  8.3468378315760672e-01  8.6873179981779358e-01  8.9563136380679453e-01  9.1673355471247087e-01  9.3319496682881997e-01  9.4597688144512548e-01  9.5586097067840958e-01  9.6347232278288120e-01  9.6930413041323127e-01  9.7374092510446508e-01  9.7707888312681601e-01  9.7954269630610846e-01  9.8129902265668478e-01  9.8246683695329118e-01  9.8312559389865095e-01  9.8332530715769495e-01  -9.8738979445818909e-01  -9.8722139480893156e-01  -9.8672119225430366e-01  -9.8586183033869246e-01  -9.8459195028027435e-01  -9.8283406702174825e-01  -9.8047985502490109e-01  -9.7738308337502178e-01  -9.7335009455368171e-01  -9.6812751076353720e-01  -9.6138680596949166e-01  -9.5270549280628170e-01  -9.4154500479757286e-01  -9.2722603716396423e-01  -9.0890333817516789e-01  -8.8554395593114665e-01  -8.5591595356157635e-01  -8.1859861078082619e-01  -7.7202956671692546e-01  -7.1460755155269451e-01  -6.4486797733489576e-01  -5.6173784725936504e-01  -4.6485171719808366e-01  -3.5487242000782754e-01  -2.3372085792039882e-01  -1.0460335622040874e-01  2.8240237364334283e-02  1.6005470246406878e-01  2.8623193424411658e-01  4.0293031486232356e-01  5.0748392183697655e-01  5.9852712136231079e-01  6.7586696345312613e-01  7.4020234546428454e-01  7.9279837961110178e-01  8.3519469799181634e-01  8.6898573242950372e-01  8.9567861291849549e-01  9.1661632096731149e-01  9.3294774297731831e-01  9.4562733223345963e-01  9.5543100816772852e-01  9.6297919334632964e-01  9.6876141451867737e-01  9.7315941170185083e-01  9.7646732549331283e-01  9.7890849978086802e-01  9.8064897707815391e-01  9.8180808661091634e-01  9.8246683695329118e-01  9.8267516642608665e-01  -9.8655616021333581e-01  -9.8638138280585630e-01  -9.8586183033869246e-01  -9.8496815704979568e-01  -9.8364780313205114e-01  -9.8182173434874287e-01  -9.7937940869149820e-01  -9.7617162001592339e-01  -9.7200091913939524e-01  -9.6660926328430252e-01  -9.5966254871496692e-01  -9.5073181373634252e-01  -9.3927125090160890e-01  -9.2459387655915537e-01  -9.0584696638490847e-01  -8.8199140823494881e-01  -8.5179214114051216e-01  -8.1383080846068268e-01  -7.6655603582190335e-01  -7.0838961401148259e-01  -6.3790497541490221e-01  -5.5408293907506834e-01  -4.5662461493413048e-01  -3.4626377369073047e-01  -2.2498329436132264e-01  -9.6027233292906772e-02  3.6362895089631121e-02  1.6746927281136834e-01  2.9275243620119601e-01  4.0845487831451754e-01  5.1199274392515992e-01  6.0206706841407220e-01  6.7852982765635472e-01  7.4210323026716951e-01  7.9405824830050831e-01  8.3592850516714001e-01  8.6929575003843340e-01  8.9565172583198516e-01  9.1632393231093967e-01  9.3244715131962408e-01  9.4496377000588327e-01  9.5463983147750442e-01  9.6208794104795903e-01  9.6779160753494764e-01  9.7212805806602964e-01  9.7538815106034460e-01  9.7779295283870193e-01  9.7950705682658556e-01  9.8064897707815391e-01  9.8129902265668478e-01  9.8150483929908439e-01  -9.8532767400816257e-01  -9.8514153256641468e-01  -9.8459195028027435e-01  -9.8364780313205114e-01  -9.8225457601873978e-01  -9.8033073717983621e-01  -9.7776245328065758e-01  -9.7439627262056761e-01  -9.7002942164715911e-01  -9.6439735015493877e-01  -9.5715819781666633e-01  -9.4787401484022071e-01  -9.3598895224418732e-01  -9.2080538552883373e-01  -9.0146024232968813e-01  -8.7690589155591225e-01  -8.4590298650815210e-01  -8.0703655591274648e-01  -7.5877070953889580e-01  -6.9955974273346144e-01  -6.2803079761975589e-01  -5.4324094300183889e-01  -4.4498588990329047e-01  -3.3410054575232279e-01  -2.1265634003065018e-01  -8.3951175390613128e-02  4.7771571449501678e-02  1.7784874839208978e-01  3.0184076626756362e-01  4.1611214018347464e-01  5.1819749211086974e-01  6.0689325703667552e-01  6.8211463536850470e-01  7.4461540652301972e-01  7.9567290080323738e-01  8.3681029942902463e-01  8.6958979539768022e-01  8.9548021873905648e-01  9.1578648675810170e-01  9.3162312729577212e-01  9.4391542799811967e-01  9.5341559881948090e-01  9.6072541140423406e-01  9.6632011230706882e-01  9.7057077575653283e-01  9.7376378649404915e-01  9.7611704313773207e-01  9.7779295283870193e-01  9.7890849978086802e-01  9.7954269630610846e-01  9.7974157732345812e-01  -9.8362651723648076e-01  -9.8342471072168103e-01  -9.8283406702174825e-01  -9.8182173434874287e-01  -9.8033073717983621e-01  -9.7827622445602180e-01  -9.7554001145657587e-01  -9.7196309561548744e-01  -9.6733579828128546e-01  -9.6138517910035837e-01  -9.5375942780854195e-01  -9.4400912755257971e-01  -9.3156570541132677e-01  -9.1571818440664321e-01  -8.9559071725537609e-01  -8.7012552361420115e-01  -8.3807890414897801e-01  -7.9804182023901971e-01  -7.4850031220867186e-01  -6.8795284280315505e-01  -6.1509806691121038e-01  -5.2909311939051351e-01  -4.2985623317626098e-01  -3.1835137285759613e-01  -1.9676056643139817e-01  -6.8445674440449716e-02  6.2353809087718093e-02  1.9105083098850351e-01  3.1333824424442058e-01  4.2573904541868174e-01  5.2593949133341011e-01  6.1285639336741693e-01  6.8648323653958732e-01  7.4761138443644959e-01  7.9752378325915430e-01  8.3772826890517649e-01  8.6976061797324589e-01  8.9505948144412673e-01  9.1490044397665604e-01  9.3037198588372472e-01  9.4237758469612964e-01  9.5165193768382805e-01  9.5878319832178194e-01  9.6423629782468201e-01  9.6837467457060944e-01  9.7147918076351092e-01  9.7376378649404915e-01  9.7538815106034460e-01  9.7646732549331283e-01  9.7707888312681601e-01  9.7726770885705661e-01  -9.8134581827593503e-01  -9.8112374002315450e-01  -9.8047985502490109e-01  -9.7937940869149820e-01  -9.7776245328065758e-01  -9.7554001145657587e-01  -9.7258847355963218e-01  -9.6874194613815834e-01  -9.6378222716799744e-01  -9.5742608331493462e-01  -9.4930958273271338e-01  -9.3896945907226625e-01  -9.2582195054930516e-01  -9.0914041726627903e-01  -8.8803447533316970e-01  -8.6143558670698994e-01  -8.2809709916502461e-01  -7.8662041311155262e-01  -7.3552234413754958e-01  -6.7335978840035215e-01  -5.9892303656888390e-01  -5.1149439633142502e-01  -4.1114194439609192e-01  -2.9898349855542367e-01  -1.7732811554267608e-01  -4.9604603618939348e-02  7.9964019894749286e-02  2.0689293819414462e-01  3.2704146026747488e-01  4.3712581325770572e-01  5.3501327864046977e-01  6.1976162995865358e-01  6.9145382628435825e-01  7.5092205180529559e-01  7.9945250714624139e-01  8.3853209099886328e-01  8.6966323212189089e-01  8.9424740725607377e-01  9.1352453727924932e-01  9.2855171256456981e-01  9.4020631424733847e-01  9.4920222139466104e-01  9.5611150382576293e-01  9.6138699240533620e-01  9.6538323164115281e-01  9.6837467457060944e-01  9.7057077575653283e-01  9.7212805806602964e-01  9.7315941170185083e-01  9.7374092510446508e-01  9.7391651376836119e-01  -9.7834179978926317e-01  -9.7809415481003081e-01  -9.7738308337502178e-01  -9.7617162001592339e-01  -9.7439627262056761e-01  -9.7196309561548744e-01  -9.6874194613815834e-01  -9.6455866511599586e-01  -9.5918488725289786e-01  -9.5232519647039648e-01  -9.4360144624150000e-01  -9.3253432539642667e-01  -9.1852277305296370e-01  -9.0082277556372925e-01  -8.7852858943371015e-01  -8.5056168929552756e-01  -8.1567577179801387e-01  -7.7248962589095227e-01  -7.1956255176597450e-01  -6.5552708695927198e-01  -5.7928766884336724e-01  -4.9027783352047660e-01  -3.8874140617833775e-01  -2.7597051153293567e-01  -1.5441067506961684e-01  -2.7552339684621334e-02  1.0041808863265443e-01  2.2514895993682676e-01  3.4270108689765566e-01  4.5001627993881849e-01  5.4516773264694252e-01  6.2736973856955114e-01  6.9680156983519403e-01  7.5433637128122211e-01  8.0125943579356729e-01  8.3903037008822301e-01  8.6911125511163467e-01  8.9285972138207692e-01  9.1147419364572502e-01  9.2597557215753534e-01  9.3721137175463920e-01  9.4587180887035516e-01  9.5251080260034060e-01  9.5756763735001349e-01  9.6138699240533632e-01  9.6423629782468201e-01  9.6632011230706882e-01  9.6779160753494764e-01  9.6876141451867737e-01  9.6930413041323127e-01  9.6946275943966165e-01  -9.7442406020254180e-01  -9.7414461952520259e-01  -9.7335009455368171e-01  -9.7200091913939524e-01  -9.7002942164715911e-01  -9.6733579828128546e-01  -9.6378222716799744e-01  -9.5918488725289786e-01  -9.5330362042316352e-01  -9.4582900721032759e-01  -9.3636676047616274e-01  -9.2441964889494355e-01  -9.0936774817090549e-01  -8.9044882394758162e-01  -8.6674223761856350e-01  -8.3716206062208987e-01  -8.0046804452770837e-01  -7.5530627660094585e-01  -7.0029354925882781e-01  -6.3415839647811978e-01  -5.5594410993709398e-01  -4.6526174089117861e-01  -3.6255410302647906e-01  -2.4930215839803557e-01  -1.2808882144292769e-01  -2.4515117335817608e-03  1.2348792666182888e-01  2.4554626290354559e-01  3.6002096099784198e-01  4.6410834413759328e-01  5.5610705726507903e-01  6.3539788537670150e-01  7.0225860746514457e-01  7.5760026364992861e-01  8.0270127670573277e-01  8.3898690072135773e-01  8.6787188328340581e-01  8.9066375282719712e-01  9.0851419908772957e-01  9.2240376641299449e-01  9.3314693714901764e-01  9.4140796309453878e-01  9.4772101875026360e-01  9.5251080260034060e-01  9.5611150382576293e-01  9.5878319832178194e-01  9.6072541140423406e-01  9.6208794104795903e-01  9.6297919334632953e-01  9.6347232278288120e-01  9.6360944682908156e-01  -9.6934324627131041e-01  -9.6902463275827289e-01  -9.6812751076353720e-01  -9.6660926328430252e-01  -9.6439735015493877e-01  -9.6138517910035837e-01  -9.5742608331493462e-01  -9.5232519647039648e-01  -9.4582900721032759e-01  -9.3761243238339453e-01  -9.2726342018273877e-01  -9.1426545544576832e-01  -8.9797899540888815e-01  -8.7762394988077519e-01  -8.5226697517927774e-01  -8.2081965422130077e-01  -7.8205645814046665e-01  -7.3466414897574828e-01  -6.7733563803141250e-01  -6.0891891370895468e-01  -5.2862244272101455e-01  -4.3626010354889733e-01  -3.3249255634506558e-01  -2.1899633372827360e-01  -9.8482630282903549e-02  2.5488835718589214e-02  1.4889621786534957e-01  2.6776316247043241e-01  3.7865760789096586e-01  4.7905463102776563e-01  5.6749167443827875e-01  6.4352000015242783e-01  7.0751337024049588e-01  7.6041455533211888e-01  8.0348751705162813e-01  8.3811556516827501e-01  8.6565929691166321e-01  8.8737042888073170e-01  9.0434938063051384e-01  9.1753290531237275e-01  9.2769997666645598e-01  9.3548720163875532e-01  9.4140796309453878e-01  9.4587180887035516e-01  9.4920222139466115e-01  9.5165193768382805e-01  9.5341559881948090e-01  9.5463983147750442e-01  9.5543100816772852e-01  9.5586097067840969e-01  9.5597097938251541e-01  -9.6277561288126356e-01  -9.6240910465085572e-01  -9.6138680596949166e-01  -9.5966254871496692e-01  -9.5715819781666633e-01  -9.5375942780854195e-01  -9.4930958273271338e-01  -9.4360144624150000e-01  -9.3636676047616274e-01  -9.2726342018273877e-01  -9.1586048479488447e-01  -9.0162157244806107e-01  -8.8388792983126752e-01  -8.6186363353303996e-01  -8.3460708203854495e-01  -8.0103519971546799e-01  -7.5994936462186968e-01  -7.1009427304161532e-01  -6.5026128989826693e-01  -5.7944397979831608e-01  -4.9704280329372980e-01  -4.0309702830467137e-01  -2.9849747840703705e-01  -1.8511318379170005e-01  -6.5763243167016455e-02  5.6005076980668332e-02  1.7631174472500977e-01  2.9142715551898990e-01  3.9822038865157355e-01  4.9446345782561085e-01  5.7893903557820992e-01  6.5136669811226977e-01  7.1220913038793510e-01  7.6243189031359748e-01  8.0327558749037398e-01  8.3607374222231179e-01  8.6212636761138706e-01  8.8262436680168455e-01  8.9861318290877013e-01  9.1098317525671135e-01  9.2047611165211496e-01  9.2769997666645598e-01  9.3314693714901764e-01  9.3721137175463920e-01  9.4020631424733858e-01  9.4237758469612964e-01  9.4391542799811967e-01  9.4496377000588327e-01  9.4562733223345963e-01  9.4597688144512548e-01  9.4605287143344619e-01  -9.5430414371343719e-01  -9.5387951658420622e-01  -9.5270549280628170e-01  -9.5073181373634252e-01  -9.4787401484022071e-01  -9.4400912755257971e-01  -9.3896945907226625e-01  -9.3253432539642667e-01  -9.2441964889494355e-01  -9.1426545544576832e-01  -9.0162157244806107e-01  -8.8593231465849698e-01  -8.6652174762231360e-01  -8.4258234319861991e-01  -8.1317155752775672e-01  -7.7722301128071869e-01  -7.3358119137432043e-01  -6.8107007129726127e-01  -6.1860520860408441e-01  -5.4535352825182237e-01  -4.6093303307510403e-01  -3.6562583338845384e-01  -2.6055622527815447e-01  -1.4777098176403064e-01  -3.0164817856583613e-02  8.8771443878482820e-02  2.0534579555164797e-01  3.1611424998366161e-01  4.1827245005563329e-01  5.0990016768666713e-01  5.9002435442664769e-01  6.5852473051811278e-01  7.1594175926876569e-01  7.6325258945293584e-01  8.0166475437985407e-01  8.3245424891114017e-01  8.5685471517941469e-01  8.7599213820470001e-01  8.9085424680969005e-01  9.0228334669912746e-01  9.1098317525671135e-01  9.1753290531237275e-01  9.2240376641299460e-01  9.2597557215753534e-01  9.2855171256456981e-01  9.3037198588372472e-01  9.3162312729577212e-01  9.3244715131962408e-01  9.3294774297731842e-01  9.3319496682881997e-01  9.3322854918663856e-01  -9.4339624117856413e-01  -9.4290169930853818e-01  -9.4154500479757286e-01  -9.3927125090160890e-01  -9.3598895224418732e-01  -9.3156570541132677e-01  -9.2582195054930516e-01  -9.1852277305296370e-01  -9.0936774817090549e-01  -8.9797899540888815e-01  -8.8388792983126752e-01  -8.6652174762231360e-01  -8.4519155023218895e-01  -8.1908527296778366e-01  -7.8727025707603682e-01  -7.4871224589973773e-01  -7.0231933578072003e-01  -6.4702001017825672e-01  -5.8188227030014372e-01  -5.0627412204182831e-01  -4.2005290687833613e-01  -3.2375308037173128e-01  -2.1872421486307145e-01  -1.0716303390649674e-01  8.0040156695924351e-03  1.2339385843504767e-01  2.3555023059427954e-01  3.4134973939271362e-01  4.3833264849973719e-01  5.2488890292546952e-01  6.0028130013344050e-01  6.6453601768948700e-01  7.1825678871399778e-01  7.6241960923600594e-01  7.9818895652153554e-01  8.2677610099550869e-01  8.4934347508549868e-01  8.6694914890688746e-01  8.8052152109365611e-01  8.9085424680969005e-01  8.9861318290877013e-01  9.0434938063051384e-01  9.0851419908772968e-01  9.1147419364572513e-01  9.1352453727924943e-01  9.1490044397665615e-01  9.1578648675810181e-01  9.1632393231093978e-01  9.1661632096731160e-01  9.1673355471247098e-01  9.1671474975446920e-01  -9.2937865896278449e-01  -9.2880093513155981e-01  -9.2722603716396423e-01  -9.2459387655915537e-01  -9.2080538552883373e-01  -9.1571818440664321e-01  -9.0914041726627892e-01  -9.0082277556372925e-01  -8.9044882394758162e-01  -8.7762394988077519e-01  -8.6186363353303996e-01  -8.4258234319861991e-01  -8.1908527296778366e-01  -7.9056639516842631e-01  -7.5611785464795367e-01  -7.1475735019902586e-01  -6.6548126553721287e-01  -6.0735090519181001e-01  -5.3961579605050525e-01  -4.6187012809206079e-01  -3.7422549952138007e-01  -2.7746721932831497e-01  -1.7314834922711980e-01  -6.3574374282682172e-02  4.8350388216884435e-02  1.5940609289226540e-01  2.6641781318873248e-01  3.6661075309713043e-01  4.5787861082659526e-01  5.3891492229631943e-01  6.0920278036853936e-01  6.6889647186341827e-01  7.1864609041010696e-01  7.5941303883581845e-01  7.9230916142588059e-01  8.1847481468086691e-01  8.3899765879880961e-01  8.5486618952223137e-01  8.6694914890688735e-01  8.7599213820470001e-01  8.8262436680168455e-01  8.8737042888073159e-01  8.9066375282719712e-01  8.9285972138207692e-01  8.9424740725607377e-01  8.9505948144412673e-01  8.9548021873905648e-01  8.9565172583198516e-01  8.9567861291849560e-01  8.9563136380679453e-01  8.9554866248730314e-01  -9.1141155629992321e-01  -9.1073630113930670e-01  -9.0890333817516789e-01  -9.0584696638490847e-01  -9.0146024232968813e-01  -8.9559071725537609e-01  -8.8803447533316970e-01  -8.7852858943371015e-01  -8.6674223761856350e-01  -8.5226697517927774e-01  -8.3460708203854495e-01  -8.1317155752775672e-01  -7.8727025707603682e-01  -7.5611785464795367e-01  -7.1885065598667697e-01  -6.7456245805067228e-01  -6.2236600923492191e-01  -5.6148516066636689e-01  -4.9137826678152191e-01  -4.1188484407435105e-01  -3.2337529309052343e-01  -2.2687053564143847e-01  -1.2409066064194571e-01  -1.7396456356384617e-02  9.0390580176157712e-02  1.9626925728876252e-01  2.9738537725634895e-01  3.9133086714020249e-01  4.7635109649487040e-01  5.5142764346712203e-01  6.1624210511195188e-01  6.7105506583339247e-01  7.1654482803031572e-01  7.5364501280156482e-01  7.8340636300264199e-01  8.0689363937046754e-01  8.2511778989262174e-01  8.3899765879880972e-01  8.4934347508549868e-01  8.5685471517941469e-01  8.6212636761138717e-01  8.6565929691166321e-01  8.6787188328340592e-01  8.6911125511163478e-01  8.6966323212189089e-01  8.6976061797324600e-01  8.6958979539768033e-01  8.6929575003843351e-01  8.6898573242950383e-01  8.6873179981779369e-01  8.6857249017481342e-01  -8.8846555467944299e-01  -8.8767817000552640e-01  -8.8554395593114665e-01  -8.8199140823494881e-01  -8.7690589155591225e-01  -8.7012552361420115e-01  -8.6143558670698994e-01  -8.5056168929552756e-01  -8.3716206062208987e-01  -8.2081965422130077e-01  -8.0103519971546799e-01  -7.7722301128071869e-01  -7.4871224589973773e-01  -7.1475735019902586e-01  -6.7456245805067228e-01  -6.2732511030912308e-01  -5.7230419813218858e-01  -5.0891457328513856e-01  -4.3684541756603501e-01  -3.5619090567863021e-01  -2.6757109851956751e-01  -1.7221177806115343e-01  -7.1949483431456213e-02  3.0862438905148181e-02  1.3354817710009548e-01  2.3337556084043920e-01  3.2784029237210460e-01  4.1490699267120701e-01  4.9315984892972770e-01  5.6184472338770441e-01  6.2081506491796123e-01  6.7041396112627694e-01  7.1132981750917890e-01  7.4445653410179835e-01  7.7077711452946163e-01  7.9127805758866032e-01  8.0689363937046754e-01  8.1847481468086702e-01  8.2677610099550880e-01  8.3245424891114017e-01  8.3607374222231190e-01  8.3811556516827512e-01  8.3898690072135773e-01  8.3903037008822312e-01  8.3853209099886339e-01  8.3772826890517660e-01  8.3681029942902474e-01  8.3592850516714012e-01 