<?xml version="1.0"?>
<VTKFile type="UnstructuredGrid"  version="0.1"  >
<UnstructuredGrid>
<Piece  NumberOfPoints="10201" NumberOfCells="20000">
<Points>
<DataArray  type="Float64"  NumberOfComponents="3"  format="ascii">0 0 0  0.25 0 0  0.5 0 0  0.75 0 0  1 0 0  1.25 0 0  1.5 0 0  1.75 0 0  2 0 0  2.25 0 0  2.5 0 0  2.75 0 0  3 0 0  3.25 0 0  3.5 0 0  3.75 0 0  4 0 0  4.25 0 0  4.5 0 0  4.75 0 0  5 0 0  5.25 0 0  5.5 0 0  5.75 0 0  6 0 0  6.25 0 0  6.5 0 0  6.75 0 0  7 0 0  7.25 0 0  7.5 0 0  7.75 0 0  8 0 0  8.25 0 0  8.5 0 0  8.75 0 0  9 0 0  9.25 0 0  9.5 0 0  9.75 0 0  10 0 0  10.25 0 0  10.5 0 0  10.75 0 0  11 0 0  11.25 0 0  11.5 0 0  11.75 0 0  12 0 0  12.25 0 0  12.5 0 0  12.75 0 0  13 0 0  13.25 0 0  13.5 0 0  13.75 0 0  14 0 0  14.25 0 0  14.5 0 0  14.75 0 0  15 0 0  15.25 0 0  15.5 0 0  15.75 0 0  16 0 0  16.25 0 0  16.5 0 0  16.75 0 0  17 0 0  17.25 0 0  17.5 0 0  17.75 0 0  18 0 0  18.25 0 0  18.5 0 0  18.75 0 0  19 0 0  19.25 0 0  19.5 0 0  19.75 0 0  20 0 0  20.25 0 0  20.5 0 0  20.75 0 0  21 0 0  21.25 0 0  21.5 0 0  21.75 0 0  22 0 0  22.25 0 0  22.5 0 0  22.75 0 0  23 0 0  23.25 0 0  23.5 0 0  23.75 0 0  24 0 0  24.25 0 0  24.5 0 0  24.75 0 0  25 0 0  0 0.25 0  0.25 0.25 0  0.5 0.25 0  0.75 0.25 0  1 0.25 0  1.25 0.25 0  1.5 0.25 0  1.75 0.25 0  2 0.25 0  2.25 0.25 0  2.5 0.25 0  2.75 0.25 0  3 0.25 0  3.25 0.25 0  3.5 0.25 0  3.75 0.25 0  4 0.25 0  4.25 0.25 0  4.5 0.25 0  4.75 0.25 0  5 0.25 0  5.25 0.25 0  5.5 0.25 0  5.75 0.25 0  6 0.25 0  6.25 0.25 0  6.5 0.25 0  6.75 0.25 0  7 0.25 0  7.25 0.25 0  7.5 0.25 0  7.75 0.25 0  8 0.25 0  8.25 0.25 0  8.5 0.25 0  8.75 0.25 0  9 0.25 0  9.25 0.25 0  9.5 0.25 0  9.75 0.25 0  10 0.25 0  10.25 0.25 0  10.5 0.25 0  10.75 0.25 0  11 0.25 0  11.25 0.25 0  11.5 0.25 0  11.75 0.25 0  12 0.25 0  12.25 0.25 0  12.5 0.25 0  12.75 0.25 0  13 0.25 0  13.25 0.25 0  13.5 0.25 0  13.75 0.25 0  14 0.25 0  14.25 0.25 0  14.5 0.25 0  14.75 0.25 0  15 0.25 0  15.25 0.25 0  15.5 0.25 0  15.75 0.25 0  16 0.25 0  16.25 0.25 0  16.5 0.25 0  16.75 0.25 0  17 0.25 0  17.25 0.25 0  17.5 0.25 0  17.75 0.25 0  18 0.25 0  18.25 0.25 0  18.5 0.25 0  18.75 0.25 0  19 0.25 0  19.25 0.25 0  19.5 0.25 0  19.75 0.25 0  20 0.25 0  20.25 0.25 0  20.5 0.25 0  20.75 0.25 0  21 0.25 0  21.25 0.25 0  21.5 0.25 0  21.75 0.25 0  22 0.25 0  22.25 0.25 0  22.5 0.25 0  22.75 0.25 0  23 0.25 0  23.25 0.25 0  23.5 0.25 0  23.75 0.25 0  24 0.25 0  24.25 0.25 0  24.5 0.25 0  24.75 0.25 0  25 0.25 0  0 0.5 0  0.25 0.5 0  0.5 0.5 0  0.75 0.5 0  1 0.5 0  1.25 0.5 0  1.5 0.5 0  1.75 0.5 0  2 0.5 0  2.25 0.5 0  2.5 0.5 0  2.75 0.5 0  3 0.5 0  3.25 0.5 0  3.5 0.5 0  3.75 0.5 0  4 0.5 0  4.25 0.5 0  4.5 0.5 0  4.75 0.5 0  5 0.5 0  5.25 0.5 0  5.5 0.5 0  5.75 0.5 0  6 0.5 0  6.25 0.5 0  6.5 0.5 0  6.75 0.5 0  7 0.5 0  7.25 0.5 0  7.5 0.5 0  7.75 0.5 0  8 0.5 0  8.25 0.5 0  8.5 0.5 0  8.75 0.5 0  9 0.5 0  9.25 0.5 0  9.5 0.5 0  9.75 0.5 0  10 0.5 0  10.25 0.5 0  10.5 0.5 0  10.75 0.5 0  11 0.5 0  11.25 0.5 0  11.5 0.5 0  11.75 0.5 0  12 0.5 0  12.25 0.5 0  12.5 0.5 0  12.75 0.5 0  13 0.5 0  13.25 0.5 0  13.5 0.5 0  13.75 0.5 0  14 0.5 0  14.25 0.5 0  14.5 0.5 0  14.75 0.5 0  15 0.5 0  15.25 0.5 0  15.5 0.5 0  15.75 0.5 0  16 0.5 0  16.25 0.5 0  16.5 0.5 0  16.75 0.5 0  17 0.5 0  17.25 0.5 0  17.5 0.5 0  17.75 0.5 0  18 0.5 0  18.25 0.5 0  18.5 0.5 0  18.75 0.5 0  19 0.5 0  19.25 0.5 0  19.5 0.5 0  19.75 0.5 0  20 0.5 0  20.25 0.5 0  20.5 0.5 0  20.75 0.5 0  21 0.5 0  21.25 0.5 0  21.5 0.5 0  21.75 0.5 0  22 0.5 0  22.25 0.5 0  22.5 0.5 0  22.75 0.5 0  23 0.5 0  23.25 0.5 0  23.5 0.5 0  23.75 0.5 0  24 0.5 0  24.25 0.5 0  24.5 0.5 0  24.75 0.5 0  25 0.5 0  0 0.75 0  0.25 0.75 0  0.5 0.75 0  0.75 0.75 0  1 0.75 0  1.25 0.75 0  1.5 0.75 0  1.75 0.75 0  2 0.75 0  2.25 0.75 0  2.5 0.75 0  2.75 0.75 0  3 0.75 0  3.25 0.75 0  3.5 0.75 0  3.75 0.75 0  4 0.75 0  4.25 0.75 0  4.5 0.75 0  4.75 0.75 0  5 0.75 0  5.25 0.75 0  5.5 0.75 0  5.75 0.75 0  6 0.75 0  6.25 0.75 0  6.5 0.75 0  6.75 0.75 0  7 0.75 0  7.25 0.75 0  7.5 0.75 0  7.75 0.75 0  8 0.75 0  8.25 0.75 0  8.5 0.75 0  8.75 0.75 0  9 0.75 0  9.25 0.75 0  9.5 0.75 0  9.75 0.75 0  10 0.75 0  10.25 0.75 0  10.5 0.75 0  10.75 0.75 0  11 0.75 0  11.25 0.75 0  11.5 0.75 0  11.75 0.75 0  12 0.75 0  12.25 0.75 0  12.5 0.75 0  12.75 0.75 0  13 0.75 0  13.25 0.75 0  13.5 0.75 0  13.75 0.75 0  14 0.75 0  14.25 0.75 0  14.5 0.75 0  14.75 0.75 0  15 0.75 0  15.25 0.75 0  15.5 0.75 0  15.75 0.75 0  16 0.75 0  16.25 0.75 0  16.5 0.75 0  16.75 0.75 0  17 0.75 0  17.25 0.75 0  17.5 0.75 0  17.75 0.75 0  18 0.75 0  18.25 0.75 0  18.5 0.75 0  18.75 0.75 0  19 0.75 0  19.25 0.75 0  19.5 0.75 0  19.75 0.75 0  20 0.75 0  20.25 0.75 0  20.5 0.75 0  20.75 0.75 0  21 0.75 0  21.25 0.75 0  21.5 0.75 0  21.75 0.75 0  22 0.75 0  22.25 0.75 0  22.5 0.75 0  22.75 0.75 0  23 0.75 0  23.25 0.75 0  23.5 0.75 0  23.75 0.75 0  24 0.75 0  24.25 0.75 0  24.5 0.75 0  24.75 0.75 0  25 0.75 0  0 1 0  0.25 1 0  0.5 1 0  0.75 1 0  1 1 0  1.25 1 0  1.5 1 0  1.75 1 0  2 1 0  2.25 1 0  2.5 1 0  2.75 1 0  3 1 0  3.25 1 0  3.5 1 0  3.75 1 0  4 1 0  4.25 1 0  4.5 1 0  4.75 1 0  5 1 0  5.25 1 0  5.5 1 0  5.75 1 0  6 1 0  6.25 1 0  6.5 1 0  6.75 1 0  7 1 0  7.25 1 0  7.5 1 0  7.75 1 0  8 1 0  8.25 1 0  8.5 1 0  8.75 1 0  9 1 0  9.25 1 0  9.5 1 0  9.75 1 0  10 1 0  10.25 1 0  10.5 1 0  10.75 1 0  11 1 0  11.25 1 0  11.5 1 0  11.75 1 0  12 1 0  12.25 1 0  12.5 1 0  12.75 1 0  13 1 0  13.25 1 0  13.5 1 0  13.75 1 0  14 1 0  14.25 1 0  14.5 1 0  14.75 1 0  15 1 0  15.25 1 0  15.5 1 0  15.75 1 0  16 1 0  16.25 1 0  16.5 1 0  16.75 1 0  17 1 0  17.25 1 0  17.5 1 0  17.75 1 0  18 1 0  18.25 1 0  18.5 1 0  18.75 1 0  19 1 0  19.25 1 0  19.5 1 0  19.75 1 0  20 1 0  20.25 1 0  20.5 1 0  20.75 1 0  21 1 0  21.25 1 0  21.5 1 0  21.75 1 0  22 1 0  22.25 1 0  22.5 1 0  22.75 1 0  23 1 0  23.25 1 0  23.5 1 0  23.75 1 0  24 1 0  24.25 1 0  24.5 1 0  24.75 1 0  25 1 0  0 1.25 0  0.25 1.25 0  0.5 1.25 0  0.75 1.25 0  1 1.25 0  1.25 1.25 0  1.5 1.25 0  1.75 1.25 0  2 1.25 0  2.25 1.25 0  2.5 1.25 0  2.75 1.25 0  3 1.25 0  3.25 1.25 0  3.5 1.25 0  3.75 1.25 0  4 1.25 0  4.25 1.25 0  4.5 1.25 0  4.75 1.25 0  5 1.25 0  5.25 1.25 0  5.5 1.25 0  5.75 1.25 0  6 1.25 0  6.25 1.25 0  6.5 1.25 0  6.75 1.25 0  7 1.25 0  7.25 1.25 0  7.5 1.25 0  7.75 1.25 0  8 1.25 0  8.25 1.25 0  8.5 1.25 0  8.75 1.25 0  9 1.25 0  9.25 1.25 0  9.5 1.25 0  9.75 1.25 0  10 1.25 0  10.25 1.25 0  10.5 1.25 0  10.75 1.25 0  11 1.25 0  11.25 1.25 0  11.5 1.25 0  11.75 1.25 0  12 1.25 0  12.25 1.25 0  12.5 1.25 0  12.75 1.25 0  13 1.25 0  13.25 1.25 0  13.5 1.25 0  13.75 1.25 0  14 1.25 0  14.25 1.25 0  14.5 1.25 0  14.75 1.25 0  15 1.25 0  15.25 1.25 0  15.5 1.25 0  15.75 1.25 0  16 1.25 0  16.25 1.25 0  16.5 1.25 0  16.75 1.25 0  17 1.25 0  17.25 1.25 0  17.5 1.25 0  17.75 1.25 0  18 1.25 0  18.25 1.25 0  18.5 1.25 0  18.75 1.25 0  19 1.25 0  19.25 1.25 0  19.5 1.25 0  19.75 1.25 0  20 1.25 0  20.25 1.25 0  20.5 1.25 0  20.75 1.25 0  21 1.25 0  21.25 1.25 0  21.5 1.25 0  21.75 1.25 0  22 1.25 0  22.25 1.25 0  22.5 1.25 0  22.75 1.25 0  23 1.25 0  23.25 1.25 0  23.5 1.25 0  23.75 1.25 0  24 1.25 0  24.25 1.25 0  24.5 1.25 0  24.75 1.25 0  25 1.25 0  0 1.5 0  0.25 1.5 0  0.5 1.5 0  0.75 1.5 0  1 1.5 0  1.25 1.5 0  1.5 1.5 0  1.75 1.5 0  2 1.5 0  2.25 1.5 0  2.5 1.5 0  2.75 1.5 0  3 1.5 0  3.25 1.5 0  3.5 1.5 0  3.75 1.5 0  4 1.5 0  4.25 1.5 0  4.5 1.5 0  4.75 1.5 0  5 1.5 0  5.25 1.5 0  5.5 1.5 0  5.75 1.5 0  6 1.5 0  6.25 1.5 0  6.5 1.5 0  6.75 1.5 0  7 1.5 0  7.25 1.5 0  7.5 1.5 0  7.75 1.5 0  8 1.5 0  8.25 1.5 0  8.5 1.5 0  8.75 1.5 0  9 1.5 0  9.25 1.5 0  9.5 1.5 0  9.75 1.5 0  10 1.5 0  10.25 1.5 0  10.5 1.5 0  10.75 1.5 0  11 1.5 0  11.25 1.5 0  11.5 1.5 0  11.75 1.5 0  12 1.5 0  12.25 1.5 0  12.5 1.5 0  12.75 1.5 0  13 1.5 0  13.25 1.5 0  13.5 1.5 0  13.75 1.5 0  14 1.5 0  14.25 1.5 0  14.5 1.5 0  14.75 1.5 0  15 1.5 0  15.25 1.5 0  15.5 1.5 0  15.75 1.5 0  16 1.5 0  16.25 1.5 0  16.5 1.5 0  16.75 1.5 0  17 1.5 0  17.25 1.5 0  17.5 1.5 0  17.75 1.5 0  18 1.5 0  18.25 1.5 0  18.5 1.5 0  18.75 1.5 0  19 1.5 0  19.25 1.5 0  19.5 1.5 0  19.75 1.5 0  20 1.5 0  20.25 1.5 0  20.5 1.5 0  20.75 1.5 0  21 1.5 0  21.25 1.5 0  21.5 1.5 0  21.75 1.5 0  22 1.5 0  22.25 1.5 0  22.5 1.5 0  22.75 1.5 0  23 1.5 0  23.25 1.5 0  23.5 1.5 0  23.75 1.5 0  24 1.5 0  24.25 1.5 0  24.5 1.5 0  24.75 1.5 0  25 1.5 0  0 1.75 0  0.25 1.75 0  0.5 1.75 0  0.75 1.75 0  1 1.75 0  1.25 1.75 0  1.5 1.75 0  1.75 1.75 0  2 1.75 0  2.25 1.75 0  2.5 1.75 0  2.75 1.75 0  3 1.75 0  3.25 1.75 0  3.5 1.75 0  3.75 1.75 0  4 1.75 0  4.25 1.75 0  4.5 1.75 0  4.75 1.75 0  5 1.75 0  5.25 1.75 0  5.5 1.75 0  5.75 1.75 0  6 1.75 0  6.25 1.75 0  6.5 1.75 0  6.75 1.75 0  7 1.75 0  7.25 1.75 0  7.5 1.75 0  7.75 1.75 0  8 1.75 0  8.25 1.75 0  8.5 1.75 0  8.75 1.75 0  9 1.75 0  9.25 1.75 0  9.5 1.75 0  9.75 1.75 0  10 1.75 0  10.25 1.75 0  10.5 1.75 0  10.75 1.75 0  11 1.75 0  11.25 1.75 0  11.5 1.75 0  11.75 1.75 0  12 1.75 0  12.25 1.75 0  12.5 1.75 0  12.75 1.75 0  13 1.75 0  13.25 1.75 0  13.5 1.75 0  13.75 1.75 0  14 1.75 0  14.25 1.75 0  14.5 1.75 0  14.75 1.75 0  15 1.75 0  15.25 1.75 0  15.5 1.75 0  15.75 1.75 0  16 1.75 0  16.25 1.75 0  16.5 1.75 0  16.75 1.75 0  17 1.75 0  17.25 1.75 0  17.5 1.75 0  17.75 1.75 0  18 1.75 0  18.25 1.75 0  18.5 1.75 0  18.75 1.75 0  19 1.75 0  19.25 1.75 0  19.5 1.75 0  19.75 1.75 0  20 1.75 0  20.25 1.75 0  20.5 1.75 0  20.75 1.75 0  21 1.75 0  21.25 1.75 0  21.5 1.75 0  21.75 1.75 0  22 1.75 0  22.25 1.75 0  22.5 1.75 0  22.75 1.75 0  23 1.75 0  23.25 1.75 0  23.5 1.75 0  23.75 1.75 0  24 1.75 0  24.25 1.75 0  24.5 1.75 0  24.75 1.75 0  25 1.75 0  0 2 0  0.25 2 0  0.5 2 0  0.75 2 0  1 2 0  1.25 2 0  1.5 2 0  1.75 2 0  2 2 0  2.25 2 0  2.5 2 0  2.75 2 0  3 2 0  3.25 2 0  3.5 2 0  3.75 2 0  4 2 0  4.25 2 0  4.5 2 0  4.75 2 0  5 2 0  5.25 2 0  5.5 2 0  5.75 2 0  6 2 0  6.25 2 0  6.5 2 0  6.75 2 0  7 2 0  7.25 2 0  7.5 2 0  7.75 2 0  8 2 0  8.25 2 0  8.5 2 0  8.75 2 0  9 2 0  9.25 2 0  9.5 2 0  9.75 2 0  10 2 0  10.25 2 0  10.5 2 0  10.75 2 0  11 2 0  11.25 2 0 
[...]
<PointData  Scalars="f_26"> 
<DataArray  type="Float64"  Name="f_26"  format="ascii">5.0663714915493263e-01  5.0617648275684857e-01  5.0541445121451289e-01  5.0425218095331426e-01  5.0264728581628382e-01  5.0056680134216380e-01  4.9797469084672330e-01  4.9482744631080122e-01  4.9107184638559742e-01  4.8664347962891569e-01  4.8146573281374644e-01  4.7544923436081366e-01  4.6849182779264564e-01  4.6047917516462977e-01  4.5128609518806423e-01  4.4077873684447033e-01  4.2881767935496623e-01  4.1526203193503308e-01  3.9997457764258726e-01  3.8282795876669351e-01  3.6371182993625445e-01  3.4254080417481697e-01  3.1926288545317588e-01  2.9386792546552559e-01  2.6639547958924359e-01  2.3694129645859124e-01  2.0566159635259570e-01  1.7277431781152372e-01  1.3855667323585696e-01  1.0333866387823602e-01  6.7492639489249079e-02  3.1419486740175306e-02  -4.4674970554537848e-03  -3.9759640966243043e-02  -7.4069300424491447e-02  -1.0704416648792610e-01  -1.3837834173141009e-01  -1.6781949855339218e-01  -1.9517194542073291e-01  -2.2029589275124922e-01  -2.4310356251184723e-01  -2.6355299054538622e-01  -2.8164043027711594e-01  -2.9739220872793115e-01  -3.1085675085335729e-01  -3.2209731643792150e-01  -3.3118581763447613e-01  -3.3819792627442274e-01  -3.4320954919076929e-01  -3.4629464965603607e-01  -3.4752432104241937e-01  -3.4696696975598584e-01  -3.4468943250967293e-01  -3.4075883275369001e-01  -3.3524496842147644e-01  -3.2822301534907883e-01  -3.1977632653188315e-01  -3.0999910692531657e-01  -2.9899874808629251e-01  -2.8689761873708375e-01  -2.7383412878499447e-01  -2.5996291757871309e-01  -2.4545406326364014e-01  -2.3049126827771019e-01  -2.1526904336686431e-01  -1.9998898385713518e-01  -1.8485530050014656e-01  -1.7006982558862671e-01  -1.5582675650828903e-01  -1.4230741877021436e-01  -1.2967532714338798e-01  -1.1807179834362799e-01  -1.0761232624021801e-01  -9.8383876929768521e-02  -9.0443202972966305e-02  -8.3816219440585996e-02  -7.8498433281276286e-02  -7.4456373934820394e-02  -7.1629937240890673e-02  -6.9935525484681210e-02  -6.9269842425188716e-02  -6.9514182263214042e-02  -7.0539035449795756e-02  -7.2208822698740710e-02  -7.4386562986103938e-02  -7.6938283430300014e-02  -7.9736990242155678e-02  -8.2666041188612246e-02  -8.5621790983454904e-02  -8.8515420374545864e-02  -9.1273905173804154e-02  -9.3840130173180353e-02  -9.6172201649967759e-02  -9.8242057975618344e-02  -1.0003351830000938e-01  -1.0153994342625604e-01  -1.0276171379944721e-01  -1.0370377363145049e-01  -1.0437362002949550e-01  -1.0478065603125286e-01  -1.0494030967789962e-01  5.0512884244014333e-01  5.0485088758462104e-01  5.0413878039575877e-01  5.0299723096245752e-01  5.0140705279810149e-01  4.9934093652386902e-01  4.9676433176768636e-01  4.9363410460803714e-01  4.8989707002400723e-01  4.8548874259480918e-01  4.8033240653310660e-01  4.7433859655701038e-01  4.6740509296555882e-01  4.5941753966597115e-01  4.5025079265057799e-01  4.3977110036289674e-01  4.2783920653383350e-01  4.1431444816340257e-01  3.9905989196958441e-01  3.8194850575983275e-01  3.6287029019451633e-01  3.4174019610607037e-01  3.1850652191949219e-01  2.9315933130759991e-01  2.6573827002158096e-01  2.3633902167238699e-01  2.0511756367360595e-01  1.7229140825133207e-01  1.3813717278923934e-01  1.0298413014265900e-01  6.7203820453515625e-02  3.1196301288954745e-02  -4.6259167735070387e-03  -3.9854854481832500e-02  -7.4103427455011153e-02  -1.0701973865823226e-01  -1.3829815659285921e-01  -1.6768649127915128e-01  -1.9498908817475200e-01  -2.2006612619736293e-01  -2.4282975936068654e-01  -2.6323794794068955e-01  -2.8128688617880732e-01  -2.9700287691870325e-01  -3.1043436934828234e-01  -3.2164470454494376e-01  -3.3070593745488280e-01  -3.3769394492354188e-01  -3.4268489841916572e-01  -3.4575307986109227e-01  -3.4696994689463695e-01  -3.4640430484200874e-01  -3.4412341053681156e-01  -3.4019481299949006e-01  -3.3468872329111954e-01  -3.2768069818091305e-01  -3.1925441823124584e-01  -3.0950434066606730e-01  -2.9853801223089793e-01  -2.8647783928111775e-01  -2.7346213396876373e-01  -2.5964528871060755e-01  -2.4519697710652363e-01  -2.3030033738256442e-01  -2.1514916133433229e-01  -1.9994418255696225e-01  -1.8488862575008297e-01  -1.7018323674841848e-01  -1.5602105402212454e-01  -1.4258220208513669e-01  -1.3002898384512959e-01  -1.1850152395800281e-01  -1.0811417305935392e-01  -9.8952829475310547e-02  -9.1073277271039865e-02  -8.4500583075038951e-02  -7.9229543110897138e-02  -7.5226128312254531e-02  -7.2429839489641129e-02  -7.0756855249202763e-02  -7.0103831320538670e-02  -7.0352190058081882e-02  -7.1372722877987169e-02  -7.3030316965293773e-02  -7.5188612154546211e-02  -7.7714396160832519e-02  -8.0481557782595803e-02  -8.3374439062890354e-02  -8.6290458423478128e-02  -8.9141916142488759e-02  -9.1856938968199686e-02  -9.4379569251275566e-02  -9.6669052563975746e-02  -9.8698423265149493e-02  -1.0045252715184207e-01  -1.0192565207429385e-01  -1.0311895937500661e-01  -1.0403791690068352e-01  -1.0468990287949237e-01  -1.0508192661938641e-01  -1.0521711972783443e-01  5.0125893984437597e-01  5.0103337870382070e-01  5.0036697031940858e-01  4.9926427807737667e-01  4.9771270787727734e-01  4.9568853075665281e-01  4.9315861213789208e-01  4.9008016886460237e-01  4.8639988031549658e-01  4.8205291695639330e-01  4.7696215300281208e-01  4.7103773110780722e-01  4.6417711409727530e-01  4.5626574504664258e-01  4.4717842773013483e-01  4.3678152990654728e-01  4.2493609937082971e-01  4.1150196391481908e-01  3.9634285653847828e-01  3.7933256030589219e-01  3.6036199661955209e-01  3.3934708133194702e-01  3.1623704415476023e-01  2.9102275480124296e-01  2.6374444104343986e-01  2.3449804774846961e-01  2.0343940983790956e-01  1.7078543678338343e-01  1.3681166433309480e-01  1.0184583161345544e-01  6.6257566406286231e-02  3.0444749219714871e-02  -5.1824099614752109e-03  -4.0218205679274061e-02  -7.4277660483983446e-02  -1.0701070466129954e-01  -1.3811318063728700e-01  -1.6733398886066581e-01  -1.9447819326081200e-01  -2.1940636515036077e-01  -2.4203079474124181e-01  -2.6230940504821965e-01  -2.8023826501042171e-01  -2.9584354409912483e-01  -3.0917361891326112e-01  -3.2029187314889396e-01  -3.2927055821556467e-01  -3.3618592418395943e-01  -3.4111470067483979e-01  -3.4413190752241840e-01  -3.4530990309232984e-01  -3.4471852892029886e-01  -3.4242617711012130e-01  -3.3850158647454975e-01  -3.3301616066944606e-01  -3.2604659391859919e-01  -3.1767758614862246e-01  -3.0800442957726898e-01  -2.9713525426817411e-01  -2.8519273289459818e-01  -2.7231506722911730e-01  -2.5865611261194738e-01  -2.4438454269072540e-01  -2.2968201420487552e-01  -2.1474035755106036e-01  -1.9975788829076965e-01  -1.8493500109151695e-01  -1.7046926373469415e-01  -1.5655026840917130e-01  -1.4335451613972597e-01  -1.3104060631771675e-01  -1.1974497846641699e-01  -1.0957841183618995e-01  -1.0062343613809469e-01  -9.2932750064798120e-02  -8.6528688797484432e-02  -8.1403731393366152e-02  -7.7521995762627471e-02  -7.4821633101711485e-02  -7.3218004240101484e-02  -7.2607496104100486e-02  -7.2871816462839134e-02  -7.3882589139397228e-02  -7.5506060672503678e-02  -7.7607724404857928e-02  -8.0056670794241530e-02  -8.2729484761110708e-02  -8.5513532751284649e-02  -8.8309513566513023e-02  -9.1033186520765100e-02  -9.3616235844770274e-02  -9.6006278602265696e-02  -9.8166071530574453e-02  -1.0007201701146425e-01  -1.0171210681884507e-01  -1.0308347143986560e-01  -1.0418971896083219e-01  -1.0503824374584164e-01  -1.0563764434192911e-01  -1.0599527722450479e-01  -1.0611480471395562e-01  4.9501162448288366e-01  4.9481019986951952e-01  4.9418415304744251e-01  4.9313085682316199e-01  4.9163720275819245e-01  4.8968003955617428e-01  4.8722646155016325e-01  4.8423344426747095e-01  4.8064710421993917e-01  4.7640188400121447e-01  4.7141988876109703e-01  4.6561054705997151e-01  4.5887073962459696e-01  4.5108552220221931e-01  4.4212955618946520e-01  4.3186934901974999e-01  4.2016639243151860e-01  4.0688126711463185e-01  3.9187875195503596e-01  3.7503392908197652e-01  3.5623920580375601e-01  3.3541207646814725e-01  3.1250332064781061e-01  2.8750518545587023e-01  2.6045894590507707e-01  2.3146110584732205e-01  2.0066743005676091e-01  1.6829402496104040e-01  1.3461484271879595e-01  9.9955280909253957e-02  6.4681965970919006e-02  2.9189284937486213e-02  -6.1163184048878714e-03  -4.0832933318952096e-02  -7.4579167866306681e-02  -1.0700812698439902e-01  -1.3781827383887887e-01  -1.6676050318186772e-01  -1.9364124532284893e-01  -2.1832187030431335e-01  -2.4071500565253034e-01  -2.6077858393598941e-01  -2.7850849900817043e-01  -2.9393069814586648e-01  -3.0709340956444303e-01  -3.1806003985421444e-01  -3.2690310541237128e-01  -3.3369940712746327e-01  -3.3852652932707494e-01  -3.4146064520956232e-01  -3.4257553936239882e-01  -3.4194270865515869e-01  -3.3963237024407877e-01  -3.3571518461419364e-01  -3.3026448862455687e-01  -3.2335882589344389e-01  -3.1508455843214139e-01  -3.0553834434618371e-01  -2.9482927285280658e-01  -2.8308046168645962e-01  -2.7042994525662206e-01  -2.5703071635122932e-01  -2.4304983034323105e-01  -2.2866653770946063e-01  -2.1406947518580260e-01  -1.9945301312552929e-01  -1.8501292028933591e-01  -1.7094156065098939e-01  -1.5742287390568410e-01  -1.4462740819757861e-01  -1.3270766883184865e-01  -1.2179402202477523e-01  -1.1199135218867247e-01  -1.0337662050857578e-01  -9.5997417652123967e-02  -8.9871549591469230e-02  -8.4987646383375165e-02  -8.1306741206614838e-02  -7.8764731254275744e-02  -7.7275602466432725e-02  -7.6735275511101778e-02  -7.7025910160328837e-02  -7.8020489271408422e-02  -7.9587492774685548e-02  -8.1595467765696941e-02  -8.3917304530548464e-02  -8.6434041306765325e-02  -8.9038043282144555e-02  -9.1635433293109275e-02  -9.4147691453664015e-02  -9.6512386250840215e-02  -9.8683047645240621e-02  -1.0062824031385544e-01  -1.0232993925284638e-01  -1.0378134754402903e-01  -1.0498432433845116e-01  -1.0594660714465758e-01  -1.0667901332850090e-01  -1.0719279004910326e-01  -1.0749726228204978e-01  -1.0759798171261044e-01  4.8647974901312996e-01  4.8629695485793972e-01  4.8571201547701887e-01  4.8471782841342853e-01  4.8329926721704958e-01  4.8143219460295189e-01  4.7908288391165071e-01  4.7620736130848240e-01  4.7275064167478714e-01  4.6864598513892192e-01  4.6381432975158654e-01  4.5816404894007212e-01  4.5159116928119936e-01  4.4398017151611019e-01  4.3520548600349745e-01  4.2513378177807082e-01  4.1362713393778500e-01  4.0054713391274444e-01  3.8575997653790534e-01  3.6914251087034877e-01  3.5058917227448405e-01  3.3001961695032117e-01  3.0738675645486824e-01  2.8268474563643864e-01  2.5595632923924061e-01  2.2729882736899382e-01  1.9686797368583184e-01  1.6487885044478603e-01  1.3160332094033420e-01  9.7363651449041452e-02  6.2522419298831594e-02  2.7469264997075114e-02  -7.3945179590675144e-03  -4.1672241409342468e-02  -7.4987481118237026e-02  -1.0699777284986463e-01  -1.3740526889209517e-01  -1.6596370181342460e-01  -1.9248147653924905e-01  -2.1682114907147212e-01  -2.3889588442219173e-01  -2.5866368478928631e-01  -2.7612024191981333e-01  -2.9129121958276705e-01  -3.0422464975770908e-01  -3.1498396698229131e-01  -3.2364203997244584e-01  -3.3027640879423015e-01  -3.3496581030583761e-01  -3.3778797730511667e-01  -3.3881862577938132e-01  -3.3813149529237146e-01  -3.3579927461261633e-01  -3.3189522342935507e-01  -3.2649528774758863e-01  -3.1968049895029682e-01  -3.1153944352983348e-01  -3.0217059227411208e-01  -2.9168428534371083e-01  -2.8020418488169552e-01  -2.6786803136229986e-01  -2.5482757515174620e-01  -2.4124760100841108e-01  -2.2730401920971791e-01  -2.1318105955492253e-01  -1.9906766884084076e-01  -1.8515327255681729e-01  -1.7162311125290844e-01  -1.5865339590042207e-01  -1.4640654105268691e-01  -1.3502672873658825e-01  -1.2463603145543227e-01  -1.1533128339619787e-01  -1.0718184019035505e-01  -1.0022831490651485e-01  -9.4482326127471511e-02  -8.9927246330003527e-02  -8.6519897055387693e-02  -8.4193101844365612e-02  -8.2858978063931374e-02  -8.2412823809372607e-02  -8.2737435591396263e-02  -8.3707676731396646e-02  -8.5195106177601634e-02  -8.7072474149816920e-02  -8.9217895994820384e-02  -9.1518529881036370e-02  -9.3873607750936672e-02  -9.6196701653465236e-02  -9.8417147672579128e-02  -1.0048059489113059e-01  -1.0234869443271223e-01  -1.0399799063721446e-01  -1.0541811988725264e-01  -1.0660945972943724e-01  -1.0758039925244040e-01  -1.0834441923297609e-01  -1.0891717653815471e-01  -1.0931378405049519e-01  -1.0954647541204650e-01  -1.0962286684305692e-01  4.7582007069369503e-01  4.7565584175751896e-01  4.7511601866855480e-01  4.7419096515875309e-01  4.7286352361826944e-01  4.7110792100785154e-01  4.6888890452476767e-01  4.6616092928385655e-01  4.6286737144231888e-01  4.5893983877137101e-01  4.5429769256520453e-01  4.4884790591233442e-01  4.4248538114137115e-01  4.3509384179847443e-01  4.2654740484988135e-01  4.1671292737892135e-01  4.0545320757456255e-01  3.9263109938921970e-01  3.7811456943212746e-01  3.6178267787645424e-01  3.4353239668498564e-01  3.2328608423343280e-01  3.0099931547204994e-01  2.7666862807078285e-01  2.5033860379052703e-01  2.2210758692062771e-01  1.9213128217090850e-01  1.6062350871774717e-01  1.2785354267697338e-01  9.4139764554139735e-02  5.9839719021434430e-02  2.5337137275852677e-02  -8.9731115440449156e-03  -4.2700868872318470e-02  -7.5475938981699631e-02  -1.0696143274339442e-01  -1.3686416588024747e-01  -1.6494148160624830e-01  -1.9100432271715440e-01  -2.1491679832652516e-01  -2.3659281261616327e-01  -2.5599051561456848e-01  -2.7310539893113800e-01  -2.8796281560346265e-01  -3.0061058747075714e-01  -3.1111221145298001e-01  -3.1954101721886891e-01  -3.2597548294321999e-01  -3.3049579376246274e-01  -3.3318163226595859e-01  -3.3411112017683403e-01  -3.3336078107787243e-01  -3.3100636074153833e-01  -3.2712431989320512e-01  -3.2179380067142399e-01  -3.1509886049412050e-01  -3.0713076457463001e-01  -2.9799013111968503e-01  -2.8778873227513313e-01  -2.7665077062979632e-01  -2.6471347702577552e-01  -2.5212691152484118e-01  -2.3905289557308773e-01  -2.2566305815552823e-01  -2.1213603886241503e-01  -1.9865395164520716e-01  -1.8539826903123427e-01  -1.7254533201592739e-01  -1.6026172098633201e-01  -1.4869973486487031e-01  -1.3799321855263627e-01  -1.2825395445113397e-01  -1.1956879605671196e-01  -1.1199767518367049e-01  -1.0557256425780941e-01  -1.0029742558910038e-01  -9.6149133564299230e-02  -9.3079314867220778e-02  -9.1017016529669634e-02  -8.9872081544397533e-02  -8.9539086503764242e-02  -8.9901675152149613e-02  -9.0837106293773562e-02  -9.2220825142424884e-02  -9.3930865183315573e-02  -9.5851894114205111e-02  -9.7878733180107647e-02  -9.9919204242688187e-02  -1.0189619243426835e-01  -1.0374885265105858e-01  -1.0543293322637549e-01  -1.0692023727300685e-01  -1.0819728860029097e-01  -1.0926331202621062e-01  -1.1012767473875927e-01  -1.1080696389256614e-01  -1.1132189424161693e-01  -1.1169424775827870e-01  -1.1194404612295474e-01  -1.1208715007389365e-01  -1.1213346862753226e-01  4.6324219262842786e-01  4.6309774465024783e-01  4.6260814920160309e-01  4.6176213750446543e-01  4.6054069008416454e-01  4.5891611034352692e-01  4.5685115249108144e-01  4.5429819625967333e-01  4.5119849280111235e-01  4.4748155065294531e-01  4.4306475930788397e-01  4.3785336016719956e-01  4.3174087614343737e-01  4.2461010659143422e-01  4.1633478622906117e-01  4.0678199603063137e-01  3.9581539980201530e-01  3.8329935967138223e-01  3.6910395289919723e-01  3.5311086599620611e-01  3.3522007487432415e-01  3.1535712807281263e-01  2.9348073448168166e-01  2.6959022458192045e-01  2.4373232101593559e-01  2.1600654564296320e-01  1.8656853855292432e-01  1.5563060331174938e-01  1.2345894710729030e-01  9.0367360246718056e-02  5.6707454382729880e-02  2.2856000591964451e-02  -1.0799697695230866e-02  -4.3877175777380671e-02  -7.6013586300807776e-02  -1.0687863158861927e-01  -1.3618465917338618e-01  -1.6369331752571004e-01  -1.8921860211340097e-01  -2.1262652222959202e-01  -2.3383192706853648e-01  -2.5279321519729225e-01  -2.6950571421978009e-01  -2.8399447837288366e-01  -2.9630714353476889e-01  -3.0650733532287100e-01  -3.1466897457154680e-01  -3.2087168466730304e-01  -3.2519738730209080e-01  -3.2772808043447382e-01  -3.2854472322675915e-01  -3.2772710366363667e-01  -3.2535453098182504e-01  -3.2150717288120007e-01  -3.1626784364346827e-01  -3.0972404181740310e-01  -3.0197003423873714e-01  -2.9310878700473880e-01  -2.8325355448633865e-01  -2.7252895574981056e-01  -2.6107139500706100e-01  -2.4902871949062916e-01  -2.3655905401715538e-01  -2.2382880468135113e-01  -2.1100988139214044e-01  -1.9827624587594914e-01  -1.8579994318641979e-01  -1.7374681561689562e-01  -1.6227212410187622e-01  -1.5151631129400372e-01  -1.4160113220002021e-01  -1.3262635433302855e-01  -1.2466719322044141e-01  -1.1777260513127301e-01  -1.1196451144493405e-01  -1.0723798190430169e-01  -1.0356235970868005e-01  -1.0088327146080674e-01  -9.9125429897309283e-02  -9.8196107096387680e-02  -9.7989130399203442e-02  -9.8389232813320168e-02  -9.9276574826474090e-02  -1.0053124634541453e-01  -1.0203755701045825e-01  -1.0368793135692930e-01  -1.0538624265611661e-01  -1.0705044555468128e-01  -1.0861440189429712e-01  -1.1002883471852630e-01  -1.1126139033426825e-01  -1.1229583493830080e-01  -1.1313045814944464e-01  -1.1377579821960197e-01  -1.1425184029789055e-01  -1.1458486775453074e-01  -1.1480416558605419e-01  -1.1493878338827203e-01  -1.1501456320089495e-01  -1.1505162490025203e-01  -1.1506247689642311e-01  4.4900440626053961e-01  4.4888105853698379e-01  4.4844672412332365e-01  4.4768887104492761e-01  4.4658670392000566e-01  4.4511042243817894e-01  4.4322044833435831e-01  4.4086667684111652e-01  4.3798781154195465e-01  4.3451085939497613e-01  4.3035087834061470e-01  4.2541107814141593e-01  4.1958337639701476e-01  4.1274950796916554e-01  4.0478277889533282e-01  3.9555054573320281e-01  3.8491748723125047e-01  3.7274971479527808e-01  3.5891973751083106e-01  3.4331225162475143e-01  3.2583065860458676e-01  3.0640412715423904e-01  2.8499490382004383e-01  2.6160545142442854e-01  2.3628487015981597e-01  2.0913395703248580e-01  1.8030821598850630e-01  1.5001817446470708e-01  1.1852651483833002e-01  8.6141795353846834e-02  5.3208892362475370e-02  2.0096694138127615e-02  -1.2816054062045400e-02  -4.5155587929257460e-02  -7.6567374551069128e-02  -1.0672858604391770e-01  -1.3535785720881272e-01  -1.6222175424084098e-01  -1.8713779043708251e-01  -2.0997420326702779e-01  -2.3064699949471643e-01  -2.4911495281076507e-01  -2.6537330055744668e-01  -2.7944685208086073e-01  -2.9138312113107884e-01  -3.0124595999560594e-01  -3.0911003002562598e-01  -3.1505631013684204e-01  -3.1916873174575217e-01  -3.2153193880406811e-01  -3.2223010407128500e-01  -3.2134668416990247e-01  -3.1896496226783905e-01  -3.1516920474979870e-01  -3.1004624418713600e-01  -3.0368729358091845e-01  -2.9618979555046626e-01  -2.8765911502951713e-01  -2.7820989584334771e-01  -2.6796692122373600e-01  -2.5706534664747960e-01  -2.4565021053609989e-01  -2.3387517354176071e-01  -2.2190048837550636e-01  -2.0989025619045562e-01  -1.9800907821883737e-01  -1.8641825801861633e-01  -1.7527174588853300e-01  -1.6471203930457384e-01  -1.5486625972431109e-01  -1.4584261676856966e-01  -1.3772744737935702e-01  -1.3058298318511574e-01  -1.2444595779713127e-01  -1.1932712092594734e-01  -1.1521168127060794e-01  -1.1206065741569095e-01  -1.0981307685564036e-01  -1.0838892841971982e-01  -1.0769274309389830e-01  -1.0761765281106932e-01  -1.0804975671264862e-01  -1.0887261046618255e-01  -1.0997164743569299e-01  -1.1123834179407763e-01  -1.1257393370596352e-01  -1.1389255566616012e-01  -1.1512362651382468e-01  -1.1621341449928174e-01  -1.1712571146886576e-01  -1.1784160476090789e-01  -1.1835837951868532e-01  -1.1868762943033027e-01  -1.1885269597315963e-01  -1.1888559271074389e-01  -1.1882359989827376e-01  -1.1870573377523508e-01  -1.1856930313913647e-01  -1.1844676229951767e-01  -1.1836305374031048e-