<?xml version="1.0"?>
<VTKFile type="UnstructuredGrid"  version="0.1"  >
<UnstructuredGrid>
<Piece  NumberOfPoints="10201" NumberOfCells="20000">
<Points>
<DataArray  type="Float64"  NumberOfComponents="3"  format="ascii">0 0 0  0.25 0 0  0.5 0 0  0.75 0 0  1 0 0  1.25 0 0  1.5 0 0  1.75 0 0  2 0 0  2.25 0 0  2.5 0 0  2.75 0 0  3 0 0  3.25 0 0  3.5 0 0  3.75 0 0  4 0 0  4.25 0 0  4.5 0 0  4.75 0 0  5 0 0  5.25 0 0  5.5 0 0  5.75 0 0  6 0 0  6.25 0 0  6.5 0 0  6.75 0 0  7 0 0  7.25 0 0  7.5 0 0  7.75 0 0  8 0 0  8.25 0 0  8.5 0 0  8.75 0 0  9 0 0  9.25 0 0  9.5 0 0  9.75 0 0  10 0 0  10.25 0 0  10.5 0 0  10.75 0 0  11 0 0  11.25 0 0  11.5 0 0  11.75 0 0  12 0 0  12.25 0 0  12.5 0 0  12.75 0 0  13 0 0  13.25 0 0  13.5 0 0  13.75 0 0  14 0 0  14.25 0 0  14.5 0 0  14.75 0 0  15 0 0  15.25 0 0  15.5 0 0  15.75 0 0  16 0 0  16.25 0 0  16.5 0 0  16.75 0 0  17 0 0  17.25 0 0  17.5 0 0  17.75 0 0  18 0 0  18.25 0 0  18.5 0 0  18.75 0 0  19 0 0  19.25 0 0  19.5 0 0  19.75 0 0  20 0 0  20.25 0 0  20.5 0 0  20.75 0 0  21 0 0  21.25 0 0  21.5 0 0  21.75 0 0  22 0 0  22.25 0 0  22.5 0 0  22.75 0 0  23 0 0  23.25 0 0  23.5 0 0  23.75 0 0  24 0 0  24.25 0 0  24.5 0 0  24.75 0 0  25 0 0  0 0.25 0  0.25 0.25 0  0.5 0.25 0  0.75 0.25 0  1 0.25 0  1.25 0.25 0  1.5 0.25 0  1.75 0.25 0  2 0.25 0  2.25 0.25 0  2.5 0.25 0  2.75 0.25 0  3 0.25 0  3.25 0.25 0  3.5 0.25 0  3.75 0.25 0  4 0.25 0  4.25 0.25 0  4.5 0.25 0  4.75 0.25 0  5 0.25 0  5.25 0.25 0  5.5 0.25 0  5.75 0.25 0  6 0.25 0  6.25 0.25 0  6.5 0.25 0  6.75 0.25 0  7 0.25 0  7.25 0.25 0  7.5 0.25 0  7.75 0.25 0  8 0.25 0  8.25 0.25 0  8.5 0.25 0  8.75 0.25 0  9 0.25 0  9.25 0.25 0  9.5 0.25 0  9.75 0.25 0  10 0.25 0  10.25 0.25 0  10.5 0.25 0  10.75 0.25 0  11 0.25 0  11.25 0.25 0  11.5 0.25 0  11.75 0.25 0  12 0.25 0  12.25 0.25 0  12.5 0.25 0  12.75 0.25 0  13 0.25 0  13.25 0.25 0  13.5 0.25 0  13.75 0.25 0  14 0.25 0  14.25 0.25 0  14.5 0.25 0  14.75 0.25 0  15 0.25 0  15.25 0.25 0  15.5 0.25 0  15.75 0.25 0  16 0.25 0  16.25 0.25 0  16.5 0.25 0  16.75 0.25 0  17 0.25 0  17.25 0.25 0  17.5 0.25 0  17.75 0.25 0  18 0.25 0  18.25 0.25 0  18.5 0.25 0  18.75 0.25 0  19 0.25 0  19.25 0.25 0  19.5 0.25 0  19.75 0.25 0  20 0.25 0  20.25 0.25 0  20.5 0.25 0  20.75 0.25 0  21 0.25 0  21.25 0.25 0  21.5 0.25 0  21.75 0.25 0  22 0.25 0  22.25 0.25 0  22.5 0.25 0  22.75 0.25 0  23 0.25 0  23.25 0.25 0  23.5 0.25 0  23.75 0.25 0  24 0.25 0  24.25 0.25 0  24.5 0.25 0  24.75 0.25 0  25 0.25 0  0 0.5 0  0.25 0.5 0  0.5 0.5 0  0.75 0.5 0  1 0.5 0  1.25 0.5 0  1.5 0.5 0  1.75 0.5 0  2 0.5 0  2.25 0.5 0  2.5 0.5 0  2.75 0.5 0  3 0.5 0  3.25 0.5 0  3.5 0.5 0  3.75 0.5 0  4 0.5 0  4.25 0.5 0  4.5 0.5 0  4.75 0.5 0  5 0.5 0  5.25 0.5 0  5.5 0.5 0  5.75 0.5 0  6 0.5 0  6.25 0.5 0  6.5 0.5 0  6.75 0.5 0  7 0.5 0  7.25 0.5 0  7.5 0.5 0  7.75 0.5 0  8 0.5 0  8.25 0.5 0  8.5 0.5 0  8.75 0.5 0  9 0.5 0  9.25 0.5 0  9.5 0.5 0  9.75 0.5 0  10 0.5 0  10.25 0.5 0  10.5 0.5 0  10.75 0.5 0  11 0.5 0  11.25 0.5 0  11.5 0.5 0  11.75 0.5 0  12 0.5 0  12.25 0.5 0  12.5 0.5 0  12.75 0.5 0  13 0.5 0  13.25 0.5 0  13.5 0.5 0  13.75 0.5 0  14 0.5 0  14.25 0.5 0  14.5 0.5 0  14.75 0.5 0  15 0.5 0  15.25 0.5 0  15.5 0.5 0  15.75 0.5 0  16 0.5 0  16.25 0.5 0  16.5 0.5 0  16.75 0.5 0  17 0.5 0  17.25 0.5 0  17.5 0.5 0  17.75 0.5 0  18 0.5 0  18.25 0.5 0  18.5 0.5 0  18.75 0.5 0  19 0.5 0  19.25 0.5 0  19.5 0.5 0  19.75 0.5 0  20 0.5 0  20.25 0.5 0  20.5 0.5 0  20.75 0.5 0  21 0.5 0  21.25 0.5 0  21.5 0.5 0  21.75 0.5 0  22 0.5 0  22.25 0.5 0  22.5 0.5 0  22.75 0.5 0  23 0.5 0  23.25 0.5 0  23.5 0.5 0  23.75 0.5 0  24 0.5 0  24.25 0.5 0  24.5 0.5 0  24.75 0.5 0  25 0.5 0  0 0.75 0  0.25 0.75 0  0.5 0.75 0  0.75 0.75 0  1 0.75 0  1.25 0.75 0  1.5 0.75 0  1.75 0.75 0  2 0.75 0  2.25 0.75 0  2.5 0.75 0  2.75 0.75 0  3 0.75 0  3.25 0.75 0  3.5 0.75 0  3.75 0.75 0  4 0.75 0  4.25 0.75 0  4.5 0.75 0  4.75 0.75 0  5 0.75 0  5.25 0.75 0  5.5 0.75 0  5.75 0.75 0  6 0.75 0  6.25 0.75 0  6.5 0.75 0  6.75 0.75 0  7 0.75 0  7.25 0.75 0  7.5 0.75 0  7.75 0.75 0  8 0.75 0  8.25 0.75 0  8.5 0.75 0  8.75 0.75 0  9 0.75 0  9.25 0.75 0  9.5 0.75 0  9.75 0.75 0  10 0.75 0  10.25 0.75 0  10.5 0.75 0  10.75 0.75 0  11 0.75 0  11.25 0.75 0  11.5 0.75 0  11.75 0.75 0  12 0.75 0  12.25 0.75 0  12.5 0.75 0  12.75 0.75 0  13 0.75 0  13.25 0.75 0  13.5 0.75 0  13.75 0.75 0  14 0.75 0  14.25 0.75 0  14.5 0.75 0  14.75 0.75 0  15 0.75 0  15.25 0.75 0  15.5 0.75 0  15.75 0.75 0  16 0.75 0  16.25 0.75 0  16.5 0.75 0  16.75 0.75 0  17 0.75 0  17.25 0.75 0  17.5 0.75 0  17.75 0.75 0  18 0.75 0  18.25 0.75 0  18.5 0.75 0  18.75 0.75 0  19 0.75 0  19.25 0.75 0  19.5 0.75 0  19.75 0.75 0  20 0.75 0  20.25 0.75 0  20.5 0.75 0  20.75 0.75 0  21 0.75 0  21.25 0.75 0  21.5 0.75 0  21.75 0.75 0  22 0.75 0  22.25 0.75 0  22.5 0.75 0  22.75 0.75 0  23 0.75 0  23.25 0.75 0  23.5 0.75 0  23.75 0.75 0  24 0.75 0  24.25 0.75 0  24.5 0.75 0  24.75 0.75 0  25 0.75 0  0 1 0  0.25 1 0  0.5 1 0  0.75 1 0  1 1 0  1.25 1 0  1.5 1 0  1.75 1 0  2 1 0  2.25 1 0  2.5 1 0  2.75 1 0  3 1 0  3.25 1 0  3.5 1 0  3.75 1 0  4 1 0  4.25 1 0  4.5 1 0  4.75 1 0  5 1 0  5.25 1 0  5.5 1 0  5.75 1 0  6 1 0  6.25 1 0  6.5 1 0  6.75 1 0  7 1 0  7.25 1 0  7.5 1 0  7.75 1 0  8 1 0  8.25 1 0  8.5 1 0  8.75 1 0  9 1 0  9.25 1 0  9.5 1 0  9.75 1 0  10 1 0  10.25 1 0  10.5 1 0  10.75 1 0  11 1 0  11.25 1 0  11.5 1 0  11.75 1 0  12 1 0  12.25 1 0  12.5 1 0  12.75 1 0  13 1 0  13.25 1 0  13.5 1 0  13.75 1 0  14 1 0  14.25 1 0  14.5 1 0  14.75 1 0  15 1 0  15.25 1 0  15.5 1 0  15.75 1 0  16 1 0  16.25 1 0  16.5 1 0  16.75 1 0  17 1 0  17.25 1 0  17.5 1 0  17.75 1 0  18 1 0  18.25 1 0  18.5 1 0  18.75 1 0  19 1 0  19.25 1 0  19.5 1 0  19.75 1 0  20 1 0  20.25 1 0  20.5 1 0  20.75 1 0  21 1 0  21.25 1 0  21.5 1 0  21.75 1 0  22 1 0  22.25 1 0  22.5 1 0  22.75 1 0  23 1 0  23.25 1 0  23.5 1 0  23.75 1 0  24 1 0  24.25 1 0  24.5 1 0  24.75 1 0  25 1 0  0 1.25 0  0.25 1.25 0  0.5 1.25 0  0.75 1.25 0  1 1.25 0  1.25 1.25 0  1.5 1.25 0  1.75 1.25 0  2 1.25 0  2.25 1.25 0  2.5 1.25 0  2.75 1.25 0  3 1.25 0  3.25 1.25 0  3.5 1.25 0  3.75 1.25 0  4 1.25 0  4.25 1.25 0  4.5 1.25 0  4.75 1.25 0  5 1.25 0  5.25 1.25 0  5.5 1.25 0  5.75 1.25 0  6 1.25 0  6.25 1.25 0  6.5 1.25 0  6.75 1.25 0  7 1.25 0  7.25 1.25 0  7.5 1.25 0  7.75 1.25 0  8 1.25 0  8.25 1.25 0  8.5 1.25 0  8.75 1.25 0  9 1.25 0  9.25 1.25 0  9.5 1.25 0  9.75 1.25 0  10 1.25 0  10.25 1.25 0  10.5 1.25 0  10.75 1.25 0  11 1.25 0  11.25 1.25 0  11.5 1.25 0  11.75 1.25 0  12 1.25 0  12.25 1.25 0  12.5 1.25 0  12.75 1.25 0  13 1.25 0  13.25 1.25 0  13.5 1.25 0  13.75 1.25 0  14 1.25 0  14.25 1.25 0  14.5 1.25 0  14.75 1.25 0  15 1.25 0  15.25 1.25 0  15.5 1.25 0  15.75 1.25 0  16 1.25 0  16.25 1.25 0  16.5 1.25 0  16.75 1.25 0  17 1.25 0  17.25 1.25 0  17.5 1.25 0  17.75 1.25 0  18 1.25 0  18.25 1.25 0  18.5 1.25 0  18.75 1.25 0  19 1.25 0  19.25 1.25 0  19.5 1.25 0  19.75 1.25 0  20 1.25 0  20.25 1.25 0  20.5 1.25 0  20.75 1.25 0  21 1.25 0  21.25 1.25 0  21.5 1.25 0  21.75 1.25 0  22 1.25 0  22.25 1.25 0  22.5 1.25 0  22.75 1.25 0  23 1.25 0  23.25 1.25 0  23.5 1.25 0  23.75 1.25 0  24 1.25 0  24.25 1.25 0  24.5 1.25 0  24.75 1.25 0  25 1.25 0  0 1.5 0  0.25 1.5 0  0.5 1.5 0  0.75 1.5 0  1 1.5 0  1.25 1.5 0  1.5 1.5 0  1.75 1.5 0  2 1.5 0  2.25 1.5 0  2.5 1.5 0  2.75 1.5 0  3 1.5 0  3.25 1.5 0  3.5 1.5 0  3.75 1.5 0  4 1.5 0  4.25 1.5 0  4.5 1.5 0  4.75 1.5 0  5 1.5 0  5.25 1.5 0  5.5 1.5 0  5.75 1.5 0  6 1.5 0  6.25 1.5 0  6.5 1.5 0  6.75 1.5 0  7 1.5 0  7.25 1.5 0  7.5 1.5 0  7.75 1.5 0  8 1.5 0  8.25 1.5 0  8.5 1.5 0  8.75 1.5 0  9 1.5 0  9.25 1.5 0  9.5 1.5 0  9.75 1.5 0  10 1.5 0  10.25 1.5 0  10.5 1.5 0  10.75 1.5 0  11 1.5 0  11.25 1.5 0  11.5 1.5 0  11.75 1.5 0  12 1.5 0  12.25 1.5 0  12.5 1.5 0  12.75 1.5 0  13 1.5 0  13.25 1.5 0  13.5 1.5 0  13.75 1.5 0  14 1.5 0  14.25 1.5 0  14.5 1.5 0  14.75 1.5 0  15 1.5 0  15.25 1.5 0  15.5 1.5 0  15.75 1.5 0  16 1.5 0  16.25 1.5 0  16.5 1.5 0  16.75 1.5 0  17 1.5 0  17.25 1.5 0  17.5 1.5 0  17.75 1.5 0  18 1.5 0  18.25 1.5 0  18.5 1.5 0  18.75 1.5 0  19 1.5 0  19.25 1.5 0  19.5 1.5 0  19.75 1.5 0  20 1.5 0  20.25 1.5 0  20.5 1.5 0  20.75 1.5 0  21 1.5 0  21.25 1.5 0  21.5 1.5 0  21.75 1.5 0  22 1.5 0  22.25 1.5 0  22.5 1.5 0  22.75 1.5 0  23 1.5 0  23.25 1.5 0  23.5 1.5 0  23.75 1.5 0  24 1.5 0  24.25 1.5 0  24.5 1.5 0  24.75 1.5 0  25 1.5 0  0 1.75 0  0.25 1.75 0  0.5 1.75 0  0.75 1.75 0  1 1.75 0  1.25 1.75 0  1.5 1.75 0  1.75 1.75 0  2 1.75 0  2.25 1.75 0  2.5 1.75 0  2.75 1.75 0  3 1.75 0  3.25 1.75 0  3.5 1.75 0  3.75 1.75 0  4 1.75 0  4.25 1.75 0  4.5 1.75 0  4.75 1.75 0  5 1.75 0  5.25 1.75 0  5.5 1.75 0  5.75 1.75 0  6 1.75 0  6.25 1.75 0  6.5 1.75 0  6.75 1.75 0  7 1.75 0  7.25 1.75 0  7.5 1.75 0  7.75 1.75 0  8 1.75 0  8.25 1.75 0  8.5 1.75 0  8.75 1.75 0  9 1.75 0  9.25 1.75 0  9.5 1.75 0  9.75 1.75 0  10 1.75 0  10.25 1.75 0  10.5 1.75 0  10.75 1.75 0  11 1.75 0  11.25 1.75 0  11.5 1.75 0  11.75 1.75 0  12 1.75 0  12.25 1.75 0  12.5 1.75 0  12.75 1.75 0  13 1.75 0  13.25 1.75 0  13.5 1.75 0  13.75 1.75 0  14 1.75 0  14.25 1.75 0  14.5 1.75 0  14.75 1.75 0  15 1.75 0  15.25 1.75 0  15.5 1.75 0  15.75 1.75 0  16 1.75 0  16.25 1.75 0  16.5 1.75 0  16.75 1.75 0  17 1.75 0  17.25 1.75 0  17.5 1.75 0  17.75 1.75 0  18 1.75 0  18.25 1.75 0  18.5 1.75 0  18.75 1.75 0  19 1.75 0  19.25 1.75 0  19.5 1.75 0  19.75 1.75 0  20 1.75 0  20.25 1.75 0  20.5 1.75 0  20.75 1.75 0  21 1.75 0  21.25 1.75 0  21.5 1.75 0  21.75 1.75 0  22 1.75 0  22.25 1.75 0  22.5 1.75 0  22.75 1.75 0  23 1.75 0  23.25 1.75 0  23.5 1.75 0  23.75 1.75 0  24 1.75 0  24.25 1.75 0  24.5 1.75 0  24.75 1.75 0  25 1.75 0  0 2 0  0.25 2 0  0.5 2 0  0.75 2 0  1 2 0  1.25 2 0  1.5 2 0  1.75 2 0  2 2 0  2.25 2 0  2.5 2 0  2.75 2 0  3 2 0  3.25 2 0  3.5 2 0  3.75 2 0  4 2 0  4.25 2 0  4.5 2 0  4.75 2 0  5 2 0  5.25 2 0  5.5 2 0  5.75 2 0  6 2 0  6.25 2 0  6.5 2 0  6.75 2 0  7 2 0  7.25 2 0  7.5 2 0  7.75 2 0  8 2 0  8.25 2 0  8.5 2 0  8.75 2 0  9 2 0  9.25 2 0  9.5 2 0  9.75 2 0  10 2 0  10.25 2 0  10.5 2 0  10.75 2 0  11 2 0  11.25 2 0 
[...]
<PointData  Scalars="f_26"> 
<DataArray  type="Float64"  Name="f_26"  format="ascii">9.9995124115687684e-01  9.9994762989327235e-01  9.9993764147572217e-01  9.9991979695020949e-01  9.9989175407361930e-01  9.9984990443604205e-01  9.9978888590815940e-01  9.9970088928104617e-01  9.9957465729241124e-01  9.9939404537618393e-01  9.9913596081788747e-01  9.9876742027879462e-01  9.9824135763555399e-01  9.9749066389273100e-01  9.9641973482791779e-01  9.9489252470462952e-01  9.9271574274698904e-01  9.8961538190069809e-01  9.8520426913819237e-01  9.7893788462510978e-01  9.7005559194236290e-01  9.5750525623741378e-01  9.3985217683749589e-01  9.1518037213483538e-01  8.8100854529903694e-01  8.3426763491824474e-01  7.7142133730753593e-01  6.8884307023802871e-01  5.8355615588866705e-01  4.5433676812078694e-01  3.0292833865800028e-01  1.3480539930265548e-01  -4.1163445958840604e-02  -2.1437979135218421e-01  -3.7493520152169052e-01  -5.1569367922263787e-01  -6.3320014381004952e-01  -7.2734498845751616e-01  -8.0031000638752936e-01  -8.5541058050746188e-01  -8.9620470139383757e-01  -9.2596299271918614e-01  -9.4743538499631963e-01  -9.6280633642985070e-01  -9.7374655734007909e-01  -9.8150114281613476e-01  -9.8698148776352523e-01  -9.9084641389626349e-01  -9.9356799741348212e-01  -9.9548241765362022e-01  -9.9682803641932483e-01  -9.9777334019575759e-01  -9.9843716483404799e-01  -9.9890319764918212e-01  -9.9923030892829567e-01  -9.9945987906427480e-01  -9.9962097855043774e-01  -9.9973402188131288e-01  -9.9981334091348595e-01  -9.9986899520647488e-01  -9.9990804457571125e-01  -9.9993544311017857e-01  -9.9995466700079727e-01  -9.9996815530847283e-01  -9.9997761934174689e-01  -9.9998425977826910e-01  -9.9998891902440645e-01  -9.9999218812157031e-01  -9.9999448175518035e-01  -9.9999609088139130e-01  -9.9999721964936916e-01  -9.9999801130510924e-01  -9.9999856636481499e-01  -9.9999895536480798e-01  -9.9999922780652972e-01  -9.9999941843218165e-01  -9.9999955162765641e-01  -9.9999964451165524e-01  -9.9999970910308023e-01  -9.9999975384176887e-01  -9.9999978465554673e-01  -9.9999980570897473e-01  -9.9999981992877118e-01  -9.9999982937253884e-01  -9.9999983548754656e-01  -9.9999983929236269e-01  -9.9999984150435217e-01  -9.9999984262918229e-01  -9.9999984302366562e-01  -9.9999984293988931e-01  -9.9999984255620789e-01  -9.9999984199901393e-01  -9.9999984135803199e-01  -9.9999984069706460e-01  -9.9999984006154241e-01  -9.9999983948382964e-01  -9.9999983898695644e-01  -9.9999983858727071e-01  -9.9999983829642436e-01  -9.9999983812329352e-01  -9.9999983807762327e-01  9.9995071469193153e-01  9.9994744310407024e-01  9.9993748736845700e-01  9.9991959125935448e-01  9.9989145448290251e-01  9.9984946868801572e-01  9.9978825807263194e-01  9.9969999070505855e-01  9.9957337639914889e-01  9.9939222403386685e-01  9.9913337551497050e-01  9.9876375611574453e-01  9.9823617271736376e-01  9.9748334131967575e-01  9.9640941946022810e-01  9.9487804287079862e-01  9.9269550638187920e-01  9.8958728673391183e-01  9.8516561398284896e-01  9.7888537291253008e-01  9.6998553790066633e-01  9.5741421715115438e-01  9.3973836807128308e-01  9.1504634616316993e-01  8.8086557205674298e-01  8.3414165897727532e-01  7.7135879775040483e-01  6.8891205602982764e-01  5.8383571369887821e-01  4.5488891894759770e-01  3.0375845167596738e-01  1.3583389750145605e-01  -4.0089640942030637e-02  -2.1343143029579567e-01  -3.7423350584605886e-01  -5.1527516907871895e-01  -6.3302768836526446e-01  -7.2734486404919074e-01  -8.0040695493850322e-01  -8.5554688187336991e-01  -8.9634428309616221e-01  -9.2608749546935076e-01  -9.4753809852059112e-01  -9.6288700344049194e-01  -9.7380786398837649e-01  -9.8154669456468235e-01  -9.8701480043741763e-01  -9.9087050206293059e-01  -9.9358527412004805e-01  -9.9549473577707881e-01  -9.9683678095124184e-01  -9.9777952780553003e-01  -9.9844153252024070e-01  -9.9890627496424877e-01  -9.9923247396105608e-01  -9.9946140051804688e-01  -9.9962204674044897e-01  -9.9973477125991261e-01  -9.9981386628401525e-01  -9.9986936331567955e-01  -9.9990830236165562e-01  -9.9993562354962973e-01  -9.9995479324372438e-01  -9.9996824359553760e-01  -9.9997768105982920e-01  -9.9998430290693330e-01  -9.9998894915278469e-01  -9.9999220916267317e-01  -9.9999449644733007e-01  -9.9999610114001536e-01  -9.9999722681368497e-01  -9.9999801631102425e-01  -9.9999856986606084e-01  -9.9999895781777159e-01  -9.9999922952963916e-01  -9.9999941964746308e-01  -9.9999955248980343e-01  -9.9999964512835604e-01  -9.9999970954922546e-01  -9.9999975416937981e-01  -9.9999978490070884e-01  -9.9999980589667936e-01  -9.9999982007629384e-01  -9.9999982949179644e-01  -9.9999983558674088e-01  -9.9999983937712622e-01  -9.9999984157854549e-01  -9.9999984269544984e-01  -9.9999984308382173e-01  -9.9999984299518596e-01  -9.9999984260752051e-01  -9.9999984204696857e-01  -9.9999984140309250e-01  -9.9999984073959058e-01  -9.9999984010182452e-01  -9.9999983952210636e-01  -9.9999983902340550e-01  -9.9999983862194075e-01  -9.9999983832896211e-01  -9.9999983815181548e-01  -9.9999983809365700e-01  9.9995050735221658e-01  9.9994731293687311e-01  9.9993738470538018e-01  9.9991947532264980e-01  9.9989129803823140e-01  9.9984924806890074e-01  9.9978794633169921e-01  9.9969955295594526e-01  9.9957276570175946e-01  9.9939137692923175e-01  9.9913220682195503e-01  9.9876215298608328e-01  9.9823398846304900e-01  9.9748039046742865e-01  9.9640547727894568e-01  9.9487285596540265e-01  9.9268882701797156e-01  9.8957895419288411e-01  9.8515572409826380e-01  9.7887460518310143e-01  9.6997575032658179e-01  9.5740946848358210e-01  9.3974656485021490e-01  9.1508167949374231e-01  8.8095168378113808e-01  8.3431486672441257e-01  7.7166955315081398e-01  6.8942132605911688e-01  5.8460234937500322e-01  4.5594667793634086e-01  3.0508894109596679e-01  1.3735105457691538e-01  -3.8527060638329572e-02  -2.1197841617443858e-01  -3.7300967204866803e-01  -5.1433564501305851e-01  -6.3236516555089206e-01  -7.2691252258727357e-01  -8.0014456778185794e-01  -8.5539881315055188e-01  -8.9626737602152362e-01  -9.2605191712473744e-01  -9.4752490708168169e-01  -9.6288497198124623e-01  -9.7381074037967430e-01  -9.8155121872413886e-01  -9.8701941053441011e-01  -9.9087454817742959e-01  -9.9358856592933242e-01  -9.9549729474906157e-01  -9.9683871127972923e-01  -9.9778095332425309e-01  -9.9844256876114057e-01  -9.9890701905444346e-01  -9.9923300299312312e-01  -9.9946177351632304e-01  -9.9962230780272665e-01  -9.9973495275672486e-01  -9.9981399166367479e-01  -9.9986944938702671e-01  -9.9990836107166980e-01  -9.9993566332841533e-01  -9.9995482000191693e-01  -9.9996826145311835e-01  -9.9997769287268667e-01  -9.9998431064389071e-01  -9.9998895416355982e-01  -9.9999221236711966e-01  -9.9999449846833610e-01  -9.9999610239635928e-01  -9.9999722758459797e-01  -9.9999801678087086e-01  -9.9999857015511306e-01  -9.9999895800330241e-01  -9.9999922966030619e-01  -9.9999941975306206e-01  -9.9999955258784268e-01  -9.9999964522845675e-01  -9.9999970965604446e-01  -9.9999975428453336e-01  -9.9999978502402498e-01  -9.9999980602700211e-01  -9.9999982021199241e-01  -9.9999982963107936e-01  -9.9999983572784534e-01  -9.9999983951842575e-01  -9.9999984171860878e-01  -9.9999984283306653e-01  -9.9999984321801016e-01  -9.9999984312518964e-01  -9.9999984273279674e-01  -9.9999984216717408e-01  -9.9999984151806520e-01  -9.9999984084932769e-01  -9.9999984020645694e-01  -9.9999983962186245e-01  -9.9999983911855750e-01  -9.9999983871271070e-01  -9.9999983841535545e-01  -9.9999983823339578e-01  -9.9999983816992544e-01  9.9995044363102858e-01  9.9994727105787451e-01  9.9993736302957659e-01  9.9991946460153114e-01  9.9989129262880894e-01  9.9984924722997248e-01  9.9978795410040189e-01  9.9969957899308226e-01  9.9957282777911038e-01  9.9939150566946111e-01  9.9913245377752369e-01  9.9876260395169303e-01  9.9823478517470476e-01  9.9748176582893688e-01  9.9640781241377441e-01  9.9487677237159744e-01  9.9269533482139671e-01  9.8958968909662026e-01  9.8517332221130050e-01  9.7890328661554982e-01  9.7002220615859847e-01  9.5748416027902128e-01  9.3986552337076779e-01  9.1526877291850883e-01  8.8124102219486589e-01  8.3475241164987957e-01  7.7231209611694407e-01  6.9033012773842373e-01  5.8582891267827275e-01  4.5751097343486752e-01  3.0695662135745200e-01  1.3942271373174148e-01  -3.6402180525131334e-02  -2.0996458951284602e-01  -3.7124013473992562e-01  -5.1288391933238808e-01  -6.3124265637708343e-01  -7.2608582390203302e-01  -7.9955855028058098e-01  -8.5499509424453302e-01  -8.9599478112757491e-01  -9.2587024192807477e-01  -9.4740470920867370e-01  -9.6280567293539321e-01  -9.7375839437785572e-01  -9.8151655978404029e-01  -9.8699635356888393e-01  -9.9085911994962528e-01  -9.9357817577630259e-01  -9.9549025056720197e-01  -9.9683390352195100e-01  -9.9777765050843026e-01  -9.9844028560591369e-01  -9.9890543142600785e-01  -9.9923189288460845e-01  -9.9946099328547799e-01  -9.9962175678842535e-01  -9.9973456188728616e-01  -9.9981371325430624e-01  -9.9986925032870655e-01  -9.9990821825209830e-01  -9.9993556053254340e-01  -9.9995474580025079e-01  -9.9996820775406947e-01  -9.9997765392433147e-01  -9.9998428234182757e-01  -9.9998893356851959e-01  -9.9999219736713196e-01  -9.9999448754105869e-01  -9.9999609444116067e-01  -9.9999722180345141e-01  -9.9999801259355414e-01  -9.9999856713862401e-01  -9.9999895584843423e-01  -9.9999922814042785e-01  -9.9999941870161035e-01  -9.9999955188205325e-01  -9.9999964477757586e-01  -9.9999970939276939e-01  -9.9999975415878495e-01  -9.9999978499840836e-01  -9.9999980607349370e-01  -9.9999982030951762e-01  -9.9999982976374024e-01  -9.9999983588362140e-01  -9.9999983968822148e-01  -9.9999984189555347e-01  -9.9999984301199862e-01  -9.9999984339509673e-01  -9.9999984329764335e-01  -9.9999984289866417e-01  -9.9999984232517447e-01  -9.9999984166746503e-01  -9.9999984098983985e-01  -9.9999984033815448e-01  -9.9999983974510076e-01  -9.9999983923389546e-01  -9.9999983882083199e-01  -9.9999983851700269e-01  -9.9999983832940487e-01  -9.9999983826162275e-01  9.9995047618740407e-01  9.9994731536686532e-01  9.9993743152050985e-01  9.9991956732593712e-01  9.9989144387759032e-01  9.9984946988362844e-01  9.9978828386022900e-01  9.9970007026884977e-01  9.9957356266446740e-01  9.9939260766986648e-01  9.9913410868231944e-01  9.9876509146953762e-01  9.9823852683754766e-01  9.9748739750771886e-01  9.9641629401241949e-01  9.9488955345225605e-01  9.9271460374280163e-01  9.8961874531514282e-01  9.8521712669443884e-01  9.7896926202603984e-01  9.7012137043126900e-01  9.5763266935236824e-01  9.4008664001064124e-01  9.1559511368188584e-01  8.8171658459682334e-01  8.3543327746866169e-01  7.7326389016337738e-01  6.9161967167453309e-01  5.8750803100550109e-01  4.5959347876326129e-01  3.0939553203430126e-01  1.4210064074460760e-01  -3.3657700659914420e-02  -2.0734148339841810e-01  -3.6889499115355584e-01  -5.1091037357633295e-01  -6.2966608961845716e-01  -7.2487908707384840e-01  -7.9866542014555331e-01  -8.5435062843084886e-01  -8.9553820349088087e-01  -9.2555083953307749e-01  -9.4718308484648417e-01  -9.6265262223314285e-01  -9.7365293431881583e-01  -9.8144392216400789e-01  -9.8694628095702031e-01  -9.9082454475757686e-01  -9.9355424922845936e-01  -9.9547365183029990e-01  -9.9682235807102360e-01  -9.9776959850212710e-01  -9.9843465516167695e-01  -9.9890148414863678e-01  -9.9922911872702480e-01  -9.9945903893991206e-01  -9.9962037683016591e-01  -9.9973358536172197e-01  -9.9981302076216805e-01  -9.9986875826449062e-01  -9.9990786793006914e-01  -9.9993531066239594e-01  -9.9995456726556531e-01  -9.9996807997875559e-01  -9.9997756233743040e-01  -9.9998421660420622e-01  -9.9998888632951854e-01  -9.9999216339080210e-01  -9.9999446309079110e-01  -9.9999607684539338e-01  -9.9999720914855794e-01  -9.9999800350625156e-01  -9.9999856063152148e-01  -9.9999895121020255e-01  -9.9999922485756421e-01  -9.9999941640261647e-01  -9.9999955029753984e-01  -9.9999964371170702e-01  -9.9999970870279198e-01  -9.9999975374033290e-01  -9.9999978477494011e-01  -9.9999980598868887e-01  -9.9999982032179879e-01  -9.9999982984232061e-01  -9.9999983600565090e-01  -9.9999983983672303e-01  -9.9999984205792847e-01  -9.9999984317894353e-01  -9.9999984355981453e-01  -9.9999984345526738e-01  -9.9999984304583478e-01  -9.9999984245972418e-01  -9.9999984178818035e-01  -9.9999984109627749e-01  -9.9999984043049395e-01  -9.9999983982402230e-01  -9.9999983930047653e-01  -9.9999983887646215e-01  -9.9999983856333086e-01  -9.9999983836835404e-01  -9.9999983829550432e-01  9.9995059033039491e-01  9.9994744191327134e-01  9.9993759251885994e-01  9.9991978731278608e-01  9.9989175516473339e-01  9.9984991853495619e-01  9.9978893716331307e-01  9.9970102713975484e-01  9.9957496881228869e-01  9.9939467798327009e-01  9.9913716036629885e-01  9.9876959310759839e-01  9.9824517100322241e-01  9.9749720812207998e-01  9.9643078477417624e-01  9.9491096087678188e-01  9.9274622815004032e-01  9.8966544573081794e-01  9.8528603035772810e-01  9.7907076298383133e-01  9.7027049650769914e-01  9.5785087499983101e-01  9.4040400030110816e-01  9.1605269524917821e-01  8.8236837570845139e-01  8.3634641032593049e-01  7.7451505219586458e-01  6.9328500572841745e-01  5.8964450131546187e-01  4.6221307124453004e-01  3.1244013630264272e-01  1.4543171306095631e-01  -3.0241890413420996e-02  -2.0406161365851661e-01  -3.6593789834605805e-01  -5.0839229681187381e-01  -6.2762481902147260e-01  -7.2329004419189946e-01  -7.9746744819788151e-01  -8.5346934100200855e-01  -8.9490153332566913e-01  -9.2509682598197962e-01  -9.4686221877810917e-01  -9.6242719423242373e-01  -9.7349513232372908e-01  -9.8133367593125576e-01  -9.8686931770410780e-01  -9.9077081203590189e-01  -9.9351671022371624e-01  -9.9544739851463937e-01  -9.9680397356390860e-01  -9.9775670553390661e-01  -9.9842559941019182e-01  -9.9889511348316051e-01  -9.9922462983447835e-01  -9.9945587093979715e-01  -9.9961813751357165e-01  -9.9973200002968166e-01  -9.9981189670602444e-01  -9.9986796007433054e-01  -9.9990730030473429e-01  -9.9993490642277949e-01  -9.9995427898232736e-01  -9.9996787411480359e-01  -9.9997741514301164e-01  -9.9998411123552577e-01  -9.9998881082296553e-01  -9.9999210923649684e-01  -9.9999442422661744e-01  -9.9999604894651317e-01  -9.9999718912488644e-01  -9.9999798914651705e-01  -9.9999855035079876e-01  -9.9999894387059507e-01  -9.9999921964066862e-01  -9.9999941271869652e-01  -9.9999954772076038e-01  -9.9999964193389157e-01  -9.9999970750036660e-01  -9.9999975295066779e-01  -9.9999978427939784e-01  -9.9999980570046620e-01  -9.9999982017719635e-01  -9.9999982979446911e-01  -9.9999983601999709e-01  -9.9999983988777941e-01  -9.9999984212692994e-01  -9.9999984325215430e-01  -9.9999984362730288e-01  -9.9999984351001492e-01  -9.9999984308308543e-01  -9.9999984247650298e-01  -9.9999984178293433e-01  -9.9999984106860107e-01  -9.9999984038091427e-01  -9.9999983975382634e-01  -9.9999983921157043e-01  -9.9999983877125609e-01  -9.9999983844465423e-01  -9.9999983823940153e-01  -9.9999983815979654e-01  9.9995078092541645e-01  9.9994764840996642e-01  9.9993784653758111e-01  9.9992012633446903e-01  9.9989222844113013e-01  9.9985059477763949e-01  9.9978991491556002e-01  9.9970244938780750e-01  9.9957704406972370e-01  9.9939771101878527e-01  9.9914159713579886e-01  9.9877608650138971e-01  9.9825467699432868e-01  9.9751112615644677e-01  9.9645116222521590e-01  9.9494078959821353e-01  9.9278987202824220e-01  9.8972925167215620e-01  9.8537919019231934e-01  9.7920650647314356e-01  9.7046769659120768e-01  9.5813611575067303e-01  9.4081405846306509e-01  9.1663715607446894e-01  8.8319166032696828e-01  8.3748777037633459e-01  7.7606416557426428e-01  6.9533015719314861e-01  5.9225109979871715e-01  4.6539405465093314e-01  3.1612710194077093e-01  1.4946274722452008e-01  -2.6102947829577443e-02  -2.0007469118171420e-01  -3.6232561109735856e-01  -5.0529642634734429e-01  -6.2509571491200822e-01  -7.2130397690061976e-01  -7.9595593059270553e-01  -8.5234633640950075e-01  -8.9408204673914471e-01  -9.2450660727957079e-01  -9.4644106374523285e-01  -9.6212860005252065e-01  -9.7328433368713274e-01  -9.8118525569454462e-01  -9.8676497490325998e-01  -9.9069750577888860e-01  -9.9346521227313334e-01  -9.9541120807074834e-01  -9.9677852390396915e-01  -9.9773879357523321e-01  -9.9841298004564349e-01  -9.9888621316893478e-01  -9.9921834530509335e-01  -9.9945142814481036e-01  -9.9961499291006872e-01  -9.9972977155736875e-01  -9.9981031552031552e-01  -9.9986683678135069e-01  -9.9990650132478887e-01  -9.9993433742941529e-01  -9.9995387328716256e-01  -9.9996758451222412e-01  -9.9997720817759950e-01  -9.9998396316778770e-01  -9.9998870478688484e-01  -9.9999203323444630e-01  -9.9999436971328104e-01  -9.9999600982761327e-01  -9.9999716104837832e-01  -9.9999796900023741e-01  -9.9999853590601939e-01  -9.9999893352881375e-01  -9.9999921225352972e-01  -9.9999940745977545e-01  -9.9999954399417268e-01  -9.9999963930907887e-01  -9.9999970566551077e-01  -9.9999975167937916e-01  -9.9999978340687024e-01  -9.9999980510639297e-01  -9.9999981977351948e-01  -9.9999982951658595e-01  -9.9999983582044438e-01  -9.9999983973169182e-01  -9.9999984198877079e-01  -9.9999984311335932e-01  -9.9999984347457693e-01  -9.9999984333409708e-01  -9.9999984287784816e-01  -9.9999984223828919e-01  -9.9999984151006283e-01  -9.9999984076099058e-01  -9.9999984003979170e-01  -9.9999983938149262e-01  -9.9999983881120802e-01  -9.9999983834676931e-01  -9.9999983800053249e-01  -9.9999983778059909e-01  -9.9999983769160983e-01  9.9995104609634189e-01  9.9994793384282155e-01  9.9993819376605941e-01  9.9992058534475969e-01  9.9989286491358798e-01  9.9985149968520215e-01  9.9979121772120150e-01  9.9970433670550984e-01  9.9957978647871149e-01  9.9940170188615252e-01  9.9914740898921550e-01  9.9878455293045343e-01  9.9826701154649300e-01  9.9752909462097961e-01  9.9647733154433726e-01  9.9497888592625594e-01  9.9284529257956478e-01  9.8980978986040213e-01  9.8549604973566762e-01  9.7937569316531414e-01  9.7071187567043549e-01  9.5848698601850557e-01  9.4131517987602831e-01  9.1734690658239437e-01  8.8418549707712291e-01  8.3885815534101826e-01  7.7791546808528667e-01  6.9776508918763414e-01  5.9534606488787201e-01  4.6916505111387019e-01  3.2049612146490919e-01  1.5424294474044381e-01  -2.1186049920209362e-02  -1.9532551810350071e-01  -3.5800754756576214e-01  -5.0158014886598534e-01  -6.2204535180123843e-01  -7.1889611449845026e-01  -7.9411324846464870e-01  -8.5096939107387692e-01  -8.9307134327374793e-01  -9.2377438802078415e-01  -9.4591556706697633e-01  -9.6175395277908349e-01  -9.7301844275934612e-01  -9.8099711577034510e-01  -9.8663209938493657e-01  -9.9060375970185532e-01  -9.9339910257474751e-01  -9.9536458838595609e-01  -9.9674563863337085e-01  -9.9771558442166064e-01  -9.9839658874569759e-01  -9.9887462767931168e-01  -9.9921014936323171e-01  -9.9944562459955766e-01  -9.9961087935480697e-01  -9.9972685288672392e-01  -9.9980824248234434e-01  -9.9986536280139349e-01  -9.9990545216092119e-01  -9.9993358983623082e-01  -9.9995334000423475e-01  -9.9996720369461101e-01  -9.9997693594784465e-01  -9.9998376836293246e-01  -9.9998856525019542e-01  -9.9999193319513024e-01  -9.9999429793318895e-01  -9.9999595828913179e-01  -9.9999712402455265e-01  -9.9999794239511441e-01  -9.9999851678621210e-01  -9.9999891979051725e-01  -9.9999920238558260e-01  -9.9999940037489077e-01  -9.9999953890860604e-01  -9.9999963565674554e-01  -9.9999970303663188e-01  -9.9999974977660866e-01  -9.9999978201389572e-01  -9.9999980406544342e-01  -9.9999981896924084e-01  -9.9999982886447392e-01  -9.9999983525853908e-01  -9.9999983921461000e-01  -9.9999984148341370e-01  -9.9999984259582053e-01  -9.9999984292791011e-01  -9.9999984274669873e-01  -9.9999984224227845e-01  -9.9999984155040467e-01  -9.9999984076837012e-01  -9.9999983996615482e-01  -9.9999983919425306e-01  -9.9999983848915797e-01  -9.9999983787719482e-01  -9.9999983737718456e-01  -9.9999983700227502e-01  -9.9999983676117454e-