<?xml version="1.0"?>
<VTKFile type="UnstructuredGrid"  version="0.1"  >
<UnstructuredGrid>
<Piece  NumberOfPoints="10201" NumberOfCells="20000">
<Points>
<DataArray  type="Float64"  NumberOfComponents="3"  format="ascii">0 0 0  0.25 0 0  0.5 0 0  0.75 0 0  1 0 0  1.25 0 0  1.5 0 0  1.75 0 0  2 0 0  2.25 0 0  2.5 0 0  2.75 0 0  3 0 0  3.25 0 0  3.5 0 0  3.75 0 0  4 0 0  4.25 0 0  4.5 0 0  4.75 0 0  5 0 0  5.25 0 0  5.5 0 0  5.75 0 0  6 0 0  6.25 0 0  6.5 0 0  6.75 0 0  7 0 0  7.25 0 0  7.5 0 0  7.75 0 0  8 0 0  8.25 0 0  8.5 0 0  8.75 0 0  9 0 0  9.25 0 0  9.5 0 0  9.75 0 0  10 0 0  10.25 0 0  10.5 0 0  10.75 0 0  11 0 0  11.25 0 0  11.5 0 0  11.75 0 0  12 0 0  12.25 0 0  12.5 0 0  12.75 0 0  13 0 0  13.25 0 0  13.5 0 0  13.75 0 0  14 0 0  14.25 0 0  14.5 0 0  14.75 0 0  15 0 0  15.25 0 0  15.5 0 0  15.75 0 0  16 0 0  16.25 0 0  16.5 0 0  16.75 0 0  17 0 0  17.25 0 0  17.5 0 0  17.75 0 0  18 0 0  18.25 0 0  18.5 0 0  18.75 0 0  19 0 0  19.25 0 0  19.5 0 0  19.75 0 0  20 0 0  20.25 0 0  20.5 0 0  20.75 0 0  21 0 0  21.25 0 0  21.5 0 0  21.75 0 0  22 0 0  22.25 0 0  22.5 0 0  22.75 0 0  23 0 0  23.25 0 0  23.5 0 0  23.75 0 0  24 0 0  24.25 0 0  24.5 0 0  24.75 0 0  25 0 0  0 0.25 0  0.25 0.25 0  0.5 0.25 0  0.75 0.25 0  1 0.25 0  1.25 0.25 0  1.5 0.25 0  1.75 0.25 0  2 0.25 0  2.25 0.25 0  2.5 0.25 0  2.75 0.25 0  3 0.25 0  3.25 0.25 0  3.5 0.25 0  3.75 0.25 0  4 0.25 0  4.25 0.25 0  4.5 0.25 0  4.75 0.25 0  5 0.25 0  5.25 0.25 0  5.5 0.25 0  5.75 0.25 0  6 0.25 0  6.25 0.25 0  6.5 0.25 0  6.75 0.25 0  7 0.25 0  7.25 0.25 0  7.5 0.25 0  7.75 0.25 0  8 0.25 0  8.25 0.25 0  8.5 0.25 0  8.75 0.25 0  9 0.25 0  9.25 0.25 0  9.5 0.25 0  9.75 0.25 0  10 0.25 0  10.25 0.25 0  10.5 0.25 0  10.75 0.25 0  11 0.25 0  11.25 0.25 0  11.5 0.25 0  11.75 0.25 0  12 0.25 0  12.25 0.25 0  12.5 0.25 0  12.75 0.25 0  13 0.25 0  13.25 0.25 0  13.5 0.25 0  13.75 0.25 0  14 0.25 0  14.25 0.25 0  14.5 0.25 0  14.75 0.25 0  15 0.25 0  15.25 0.25 0  15.5 0.25 0  15.75 0.25 0  16 0.25 0  16.25 0.25 0  16.5 0.25 0  16.75 0.25 0  17 0.25 0  17.25 0.25 0  17.5 0.25 0  17.75 0.25 0  18 0.25 0  18.25 0.25 0  18.5 0.25 0  18.75 0.25 0  19 0.25 0  19.25 0.25 0  19.5 0.25 0  19.75 0.25 0  20 0.25 0  20.25 0.25 0  20.5 0.25 0  20.75 0.25 0  21 0.25 0  21.25 0.25 0  21.5 0.25 0  21.75 0.25 0  22 0.25 0  22.25 0.25 0  22.5 0.25 0  22.75 0.25 0  23 0.25 0  23.25 0.25 0  23.5 0.25 0  23.75 0.25 0  24 0.25 0  24.25 0.25 0  24.5 0.25 0  24.75 0.25 0  25 0.25 0  0 0.5 0  0.25 0.5 0  0.5 0.5 0  0.75 0.5 0  1 0.5 0  1.25 0.5 0  1.5 0.5 0  1.75 0.5 0  2 0.5 0  2.25 0.5 0  2.5 0.5 0  2.75 0.5 0  3 0.5 0  3.25 0.5 0  3.5 0.5 0  3.75 0.5 0  4 0.5 0  4.25 0.5 0  4.5 0.5 0  4.75 0.5 0  5 0.5 0  5.25 0.5 0  5.5 0.5 0  5.75 0.5 0  6 0.5 0  6.25 0.5 0  6.5 0.5 0  6.75 0.5 0  7 0.5 0  7.25 0.5 0  7.5 0.5 0  7.75 0.5 0  8 0.5 0  8.25 0.5 0  8.5 0.5 0  8.75 0.5 0  9 0.5 0  9.25 0.5 0  9.5 0.5 0  9.75 0.5 0  10 0.5 0  10.25 0.5 0  10.5 0.5 0  10.75 0.5 0  11 0.5 0  11.25 0.5 0  11.5 0.5 0  11.75 0.5 0  12 0.5 0  12.25 0.5 0  12.5 0.5 0  12.75 0.5 0  13 0.5 0  13.25 0.5 0  13.5 0.5 0  13.75 0.5 0  14 0.5 0  14.25 0.5 0  14.5 0.5 0  14.75 0.5 0  15 0.5 0  15.25 0.5 0  15.5 0.5 0  15.75 0.5 0  16 0.5 0  16.25 0.5 0  16.5 0.5 0  16.75 0.5 0  17 0.5 0  17.25 0.5 0  17.5 0.5 0  17.75 0.5 0  18 0.5 0  18.25 0.5 0  18.5 0.5 0  18.75 0.5 0  19 0.5 0  19.25 0.5 0  19.5 0.5 0  19.75 0.5 0  20 0.5 0  20.25 0.5 0  20.5 0.5 0  20.75 0.5 0  21 0.5 0  21.25 0.5 0  21.5 0.5 0  21.75 0.5 0  22 0.5 0  22.25 0.5 0  22.5 0.5 0  22.75 0.5 0  23 0.5 0  23.25 0.5 0  23.5 0.5 0  23.75 0.5 0  24 0.5 0  24.25 0.5 0  24.5 0.5 0  24.75 0.5 0  25 0.5 0  0 0.75 0  0.25 0.75 0  0.5 0.75 0  0.75 0.75 0  1 0.75 0  1.25 0.75 0  1.5 0.75 0  1.75 0.75 0  2 0.75 0  2.25 0.75 0  2.5 0.75 0  2.75 0.75 0  3 0.75 0  3.25 0.75 0  3.5 0.75 0  3.75 0.75 0  4 0.75 0  4.25 0.75 0  4.5 0.75 0  4.75 0.75 0  5 0.75 0  5.25 0.75 0  5.5 0.75 0  5.75 0.75 0  6 0.75 0  6.25 0.75 0  6.5 0.75 0  6.75 0.75 0  7 0.75 0  7.25 0.75 0  7.5 0.75 0  7.75 0.75 0  8 0.75 0  8.25 0.75 0  8.5 0.75 0  8.75 0.75 0  9 0.75 0  9.25 0.75 0  9.5 0.75 0  9.75 0.75 0  10 0.75 0  10.25 0.75 0  10.5 0.75 0  10.75 0.75 0  11 0.75 0  11.25 0.75 0  11.5 0.75 0  11.75 0.75 0  12 0.75 0  12.25 0.75 0  12.5 0.75 0  12.75 0.75 0  13 0.75 0  13.25 0.75 0  13.5 0.75 0  13.75 0.75 0  14 0.75 0  14.25 0.75 0  14.5 0.75 0  14.75 0.75 0  15 0.75 0  15.25 0.75 0  15.5 0.75 0  15.75 0.75 0  16 0.75 0  16.25 0.75 0  16.5 0.75 0  16.75 0.75 0  17 0.75 0  17.25 0.75 0  17.5 0.75 0  17.75 0.75 0  18 0.75 0  18.25 0.75 0  18.5 0.75 0  18.75 0.75 0  19 0.75 0  19.25 0.75 0  19.5 0.75 0  19.75 0.75 0  20 0.75 0  20.25 0.75 0  20.5 0.75 0  20.75 0.75 0  21 0.75 0  21.25 0.75 0  21.5 0.75 0  21.75 0.75 0  22 0.75 0  22.25 0.75 0  22.5 0.75 0  22.75 0.75 0  23 0.75 0  23.25 0.75 0  23.5 0.75 0  23.75 0.75 0  24 0.75 0  24.25 0.75 0  24.5 0.75 0  24.75 0.75 0  25 0.75 0  0 1 0  0.25 1 0  0.5 1 0  0.75 1 0  1 1 0  1.25 1 0  1.5 1 0  1.75 1 0  2 1 0  2.25 1 0  2.5 1 0  2.75 1 0  3 1 0  3.25 1 0  3.5 1 0  3.75 1 0  4 1 0  4.25 1 0  4.5 1 0  4.75 1 0  5 1 0  5.25 1 0  5.5 1 0  5.75 1 0  6 1 0  6.25 1 0  6.5 1 0  6.75 1 0  7 1 0  7.25 1 0  7.5 1 0  7.75 1 0  8 1 0  8.25 1 0  8.5 1 0  8.75 1 0  9 1 0  9.25 1 0  9.5 1 0  9.75 1 0  10 1 0  10.25 1 0  10.5 1 0  10.75 1 0  11 1 0  11.25 1 0  11.5 1 0  11.75 1 0  12 1 0  12.25 1 0  12.5 1 0  12.75 1 0  13 1 0  13.25 1 0  13.5 1 0  13.75 1 0  14 1 0  14.25 1 0  14.5 1 0  14.75 1 0  15 1 0  15.25 1 0  15.5 1 0  15.75 1 0  16 1 0  16.25 1 0  16.5 1 0  16.75 1 0  17 1 0  17.25 1 0  17.5 1 0  17.75 1 0  18 1 0  18.25 1 0  18.5 1 0  18.75 1 0  19 1 0  19.25 1 0  19.5 1 0  19.75 1 0  20 1 0  20.25 1 0  20.5 1 0  20.75 1 0  21 1 0  21.25 1 0  21.5 1 0  21.75 1 0  22 1 0  22.25 1 0  22.5 1 0  22.75 1 0  23 1 0  23.25 1 0  23.5 1 0  23.75 1 0  24 1 0  24.25 1 0  24.5 1 0  24.75 1 0  25 1 0  0 1.25 0  0.25 1.25 0  0.5 1.25 0  0.75 1.25 0  1 1.25 0  1.25 1.25 0  1.5 1.25 0  1.75 1.25 0  2 1.25 0  2.25 1.25 0  2.5 1.25 0  2.75 1.25 0  3 1.25 0  3.25 1.25 0  3.5 1.25 0  3.75 1.25 0  4 1.25 0  4.25 1.25 0  4.5 1.25 0  4.75 1.25 0  5 1.25 0  5.25 1.25 0  5.5 1.25 0  5.75 1.25 0  6 1.25 0  6.25 1.25 0  6.5 1.25 0  6.75 1.25 0  7 1.25 0  7.25 1.25 0  7.5 1.25 0  7.75 1.25 0  8 1.25 0  8.25 1.25 0  8.5 1.25 0  8.75 1.25 0  9 1.25 0  9.25 1.25 0  9.5 1.25 0  9.75 1.25 0  10 1.25 0  10.25 1.25 0  10.5 1.25 0  10.75 1.25 0  11 1.25 0  11.25 1.25 0  11.5 1.25 0  11.75 1.25 0  12 1.25 0  12.25 1.25 0  12.5 1.25 0  12.75 1.25 0  13 1.25 0  13.25 1.25 0  13.5 1.25 0  13.75 1.25 0  14 1.25 0  14.25 1.25 0  14.5 1.25 0  14.75 1.25 0  15 1.25 0  15.25 1.25 0  15.5 1.25 0  15.75 1.25 0  16 1.25 0  16.25 1.25 0  16.5 1.25 0  16.75 1.25 0  17 1.25 0  17.25 1.25 0  17.5 1.25 0  17.75 1.25 0  18 1.25 0  18.25 1.25 0  18.5 1.25 0  18.75 1.25 0  19 1.25 0  19.25 1.25 0  19.5 1.25 0  19.75 1.25 0  20 1.25 0  20.25 1.25 0  20.5 1.25 0  20.75 1.25 0  21 1.25 0  21.25 1.25 0  21.5 1.25 0  21.75 1.25 0  22 1.25 0  22.25 1.25 0  22.5 1.25 0  22.75 1.25 0  23 1.25 0  23.25 1.25 0  23.5 1.25 0  23.75 1.25 0  24 1.25 0  24.25 1.25 0  24.5 1.25 0  24.75 1.25 0  25 1.25 0  0 1.5 0  0.25 1.5 0  0.5 1.5 0  0.75 1.5 0  1 1.5 0  1.25 1.5 0  1.5 1.5 0  1.75 1.5 0  2 1.5 0  2.25 1.5 0  2.5 1.5 0  2.75 1.5 0  3 1.5 0  3.25 1.5 0  3.5 1.5 0  3.75 1.5 0  4 1.5 0  4.25 1.5 0  4.5 1.5 0  4.75 1.5 0  5 1.5 0  5.25 1.5 0  5.5 1.5 0  5.75 1.5 0  6 1.5 0  6.25 1.5 0  6.5 1.5 0  6.75 1.5 0  7 1.5 0  7.25 1.5 0  7.5 1.5 0  7.75 1.5 0  8 1.5 0  8.25 1.5 0  8.5 1.5 0  8.75 1.5 0  9 1.5 0  9.25 1.5 0  9.5 1.5 0  9.75 1.5 0  10 1.5 0  10.25 1.5 0  10.5 1.5 0  10.75 1.5 0  11 1.5 0  11.25 1.5 0  11.5 1.5 0  11.75 1.5 0  12 1.5 0  12.25 1.5 0  12.5 1.5 0  12.75 1.5 0  13 1.5 0  13.25 1.5 0  13.5 1.5 0  13.75 1.5 0  14 1.5 0  14.25 1.5 0  14.5 1.5 0  14.75 1.5 0  15 1.5 0  15.25 1.5 0  15.5 1.5 0  15.75 1.5 0  16 1.5 0  16.25 1.5 0  16.5 1.5 0  16.75 1.5 0  17 1.5 0  17.25 1.5 0  17.5 1.5 0  17.75 1.5 0  18 1.5 0  18.25 1.5 0  18.5 1.5 0  18.75 1.5 0  19 1.5 0  19.25 1.5 0  19.5 1.5 0  19.75 1.5 0  20 1.5 0  20.25 1.5 0  20.5 1.5 0  20.75 1.5 0  21 1.5 0  21.25 1.5 0  21.5 1.5 0  21.75 1.5 0  22 1.5 0  22.25 1.5 0  22.5 1.5 0  22.75 1.5 0  23 1.5 0  23.25 1.5 0  23.5 1.5 0  23.75 1.5 0  24 1.5 0  24.25 1.5 0  24.5 1.5 0  24.75 1.5 0  25 1.5 0  0 1.75 0  0.25 1.75 0  0.5 1.75 0  0.75 1.75 0  1 1.75 0  1.25 1.75 0  1.5 1.75 0  1.75 1.75 0  2 1.75 0  2.25 1.75 0  2.5 1.75 0  2.75 1.75 0  3 1.75 0  3.25 1.75 0  3.5 1.75 0  3.75 1.75 0  4 1.75 0  4.25 1.75 0  4.5 1.75 0  4.75 1.75 0  5 1.75 0  5.25 1.75 0  5.5 1.75 0  5.75 1.75 0  6 1.75 0  6.25 1.75 0  6.5 1.75 0  6.75 1.75 0  7 1.75 0  7.25 1.75 0  7.5 1.75 0  7.75 1.75 0  8 1.75 0  8.25 1.75 0  8.5 1.75 0  8.75 1.75 0  9 1.75 0  9.25 1.75 0  9.5 1.75 0  9.75 1.75 0  10 1.75 0  10.25 1.75 0  10.5 1.75 0  10.75 1.75 0  11 1.75 0  11.25 1.75 0  11.5 1.75 0  11.75 1.75 0  12 1.75 0  12.25 1.75 0  12.5 1.75 0  12.75 1.75 0  13 1.75 0  13.25 1.75 0  13.5 1.75 0  13.75 1.75 0  14 1.75 0  14.25 1.75 0  14.5 1.75 0  14.75 1.75 0  15 1.75 0  15.25 1.75 0  15.5 1.75 0  15.75 1.75 0  16 1.75 0  16.25 1.75 0  16.5 1.75 0  16.75 1.75 0  17 1.75 0  17.25 1.75 0  17.5 1.75 0  17.75 1.75 0  18 1.75 0  18.25 1.75 0  18.5 1.75 0  18.75 1.75 0  19 1.75 0  19.25 1.75 0  19.5 1.75 0  19.75 1.75 0  20 1.75 0  20.25 1.75 0  20.5 1.75 0  20.75 1.75 0  21 1.75 0  21.25 1.75 0  21.5 1.75 0  21.75 1.75 0  22 1.75 0  22.25 1.75 0  22.5 1.75 0  22.75 1.75 0  23 1.75 0  23.25 1.75 0  23.5 1.75 0  23.75 1.75 0  24 1.75 0  24.25 1.75 0  24.5 1.75 0  24.75 1.75 0  25 1.75 0  0 2 0  0.25 2 0  0.5 2 0  0.75 2 0  1 2 0  1.25 2 0  1.5 2 0  1.75 2 0  2 2 0  2.25 2 0  2.5 2 0  2.75 2 0  3 2 0  3.25 2 0  3.5 2 0  3.75 2 0  4 2 0  4.25 2 0  4.5 2 0  4.75 2 0  5 2 0  5.25 2 0  5.5 2 0  5.75 2 0  6 2 0  6.25 2 0  6.5 2 0  6.75 2 0  7 2 0  7.25 2 0  7.5 2 0  7.75 2 0  8 2 0  8.25 2 0  8.5 2 0  8.75 2 0  9 2 0  9.25 2 0  9.5 2 0  9.75 2 0  10 2 0  10.25 2 0  10.5 2 0  10.75 2 0  11 2 0  11.25 2 0 
[...]
<PointData  Scalars="f_23"> 
<DataArray  type="Float64"  Name="f_23"  format="ascii">2.8961026540202572e-01  2.8800446904388838e-01  2.8439542236722387e-01  2.7862719587830076e-01  2.7067629999385023e-01  2.6056626987962000e-01  2.4834981238911708e-01  2.3410726724526754e-01  2.1794939424132587e-01  2.0002110056355435e-01  1.8050474280268494e-01  1.5962217812819288e-01  1.3763495417609822e-01  1.1484220337707594e-01  9.1576016754176259e-02  6.8194320178746659e-02  4.5071539156573540e-02  2.2587578739924171e-02  1.1158231471801296e-03  -1.8989055654980835e-02  -3.7402712254825138e-02  -5.3841513869813430e-02  -6.8071230393409871e-02  -7.9913768844432312e-02  -8.9251883650858815e-02  -9.6031935326017726e-02  -1.0026484492203169e-01  -1.0202540186152083e-01  -1.0145004547370499e-01  -9.8733182479318171e-02  -9.4122052742153003e-02  -8.7910138013236369e-02  -8.0429137014830912e-02  -7.2039605609796192e-02  -6.3120470310490909e-02  -5.4057744354691600e-02  -4.5232881178192574e-02  -3.7011266256941629e-02  -2.9731359840312048e-02  -2.3694957530366940e-02  -1.9158943119403360e-02  -1.6328787908881461e-02  -1.5353925667361460e-02  -1.6325022521125779e-02  -1.9273079107984578e-02  -2.4170251512249653e-02  -3.0932252415713374e-02  -3.9422183476013326e-02  -4.9455641619551419e-02  -6.0806925722142233e-02  -7.3216141557203393e-02  -8.6396964071254828e-02  -1.0004477498336506e-01  -1.1384486176916371e-01  -1.2748035268901717e-01  -1.4063957979768191e-01  -1.5302261036537859e-01  -1.6434676299115061e-01  -1.7435101853189208e-01  -1.8279933508972654e-01  -1.8948296735579112e-01  -1.9422196213811732e-01  -1.9686604603172220e-01  -1.9729513431919246e-01  -1.9541967276730840e-01  -1.9118097971816481e-01  -1.8455169078439310e-01  -1.7553633008758482e-01  -1.6417194886816244e-01  -1.5052869368393856e-01  -1.3471010194203023e-01  -1.1685288164938308e-01  -9.7125923311601442e-02  -7.5728320472699923e-02  -5.2886242688221806e-02  -2.8848606129491819e-02  -3.8816114847124938e-03  2.1737650238234447e-02  4.7728205666867134e-02  7.3812416954901428e-02  9.9722966917337230e-02  1.2520918285991325e-01  1.5004233468795028e-01  1.7401964540648615e-01  1.9696687571061561e-01  2.1873946993065790e-01  2.3922236124654295e-01  2.5832861798701323e-01  2.7599716447747430e-01  2.9218982978557811e-01  3.0688797082454838e-01  3.2008889006210178e-01  3.3180223044129764e-01  3.4204648768105644e-01  3.5084573672314645e-01  3.5822662324290100e-01  3.6421560790193119e-01  3.6883630876714713e-01  3.7210631065199484e-01  3.7403086205837288e-01  3.7458208182342739e-01  2.8743213255387040e-01  2.8617392280081055e-01  2.8265740823182861e-01  2.7692509084902728e-01  2.6899838969403261e-01  2.5891241628298672e-01  2.4672362010635504e-01  2.3251401313522160e-01  2.1639535887727557e-01  1.9851325676026221e-01  1.7905052544951183e-01  1.5822925768426180e-01  1.3631099575051672e-01  1.1359461514154756e-01  9.0411700676516826e-02  6.7119441415746051e-02  4.4091329938346045e-02  2.1706189250677334e-02  3.3622677818879402e-04  -1.9665101093580245e-02  -3.7974651120769982e-02  -5.4309934882153452e-02  -6.8437774557461917e-02  -8.0181013804881948e-02  -8.9423214325595912e-02  -9.6111408929187500e-02  -1.0025705638733738e-01  -1.0193535368476458e-01  -1.0128302441047521e-01  -9.8494644489104513e-02  -9.3817517038287765e-02  -8.7545090923894994e-02  -8.0008946401218445e-02  -7.1569446656700939e-02  -6.2605263498387922e-02  -5.3502106319252472e-02  -4.4641089002242444e-02  -3.6387235578347513e-02  -2.9078637021444170e-02  -2.3016725984450960e-02  -1.8458043636545921e-02  -1.5607752366121027e-02  -1.4615022778808369e-02  -1.5570313305936766e-02  -1.8504478645880982e-02  -2.3389592523038117e-02  -3.0141345486060327e-02  -3.8622868591406789e-02  -4.8649826193523808e-02  -5.9996605577171118e-02  -7.2403403185133025e-02  -8.5583968731233695e-02  -9.9233727433363478e-02  -1.1303796830039697e-01  -1.2667977432648952e-01  -1.3984738685920237e-01  -1.5224074401822399e-01  -1.6357700815505949e-01  -1.7359499071089921e-01  -1.8205848178195108e-01  -1.8875858287439137e-01  -1.9351521318825149e-01  -1.9617800434215182e-01  -1.9662681205093241e-01  -1.9477205628420655e-01  -1.9055505754854404e-01  -1.8394847217296495e-01  -1.7495685139010345e-01  -1.6361726614440697e-01  -1.4999986115670613e-01  -1.3420813744025040e-01  -1.1637872162431646e-01  -9.6680371338376592e-02  -7.5311994125812590e-02  -5.2499524118655445e-02  -2.8491601444383292e-02  -3.5541231204221425e-03  2.2036135433936191e-02  4.7998511727267788e-02  7.4055658358499879e-02  9.9940514844533784e-02  1.2540262157728543e-01  1.5021341191069104e-01  1.7417022035425639e-01  1.9709886803635135e-01  2.1885481196179621e-01  2.3932295521797420e-01  2.5841629929823423e-01  2.7607367154248263e-01  2.9225678078018275e-01  3.0694684756646506e-01  3.2014102940368677e-01  3.3184882404551641e-01  3.4208859236709827e-01  3.5088430131717024e-01  3.5826254979557548e-01  3.6424990774157451e-01  3.6887058323024857e-01  3.7214452198422243e-01  3.7408677938775470e-01  3.7471348844639885e-01  2.8211459721019227e-01  2.8094947273236304e-01  2.7750913812349931e-01  2.7183656195497624e-01  2.6396725679819810e-01  2.5394530372108143e-01  2.4183244740483359e-01  2.2771423152278394e-01  2.1170508758637166e-01  1.9395273188452891e-01  1.7464159806326654e-01  1.5399483603832187e-01  1.3227440218635800e-01  1.0977886887637808e-01  8.6838761577367515e-02  6.3809463435313601e-02  4.1061977539355282e-02  1.8972066406521128e-02  -2.0915429231408004e-03  -2.1779120980978780e-02  -3.9771320848680167e-02  -5.5789356469496502e-02  -6.9603522543390473e-02  -8.1039805184436667e-02  -8.9984516037429921e-02  -9.6387017391338578e-02  -1.0026067645706413e-01  -1.0168219540236030e-01  -1.0078942688979595e-01  -9.7777728886937351e-02  -9.2894865654847447e-02  -8.6434447515376878e-02  -7.8727933498215413e-02  -7.0135298396701115e-02  -6.1034576231084638e-02  -5.1810612983149644e-02  -4.2843466068134314e-02  -3.4496952551457585e-02  -2.7107857797206342e-02  -2.0976268848667191e-02  -1.6357402788339553e-02  -1.3455179120294005e-02  -1.2417659740459337e-02  -1.3334370428514210e-02  -1.6235436690323561e-02  -2.1092417385308770e-02  -2.7820696353576913e-02  -3.6283283979342225e-02  -4.6295874511829538e-02  -5.7632990757021572e-02  -7.0035020673180279e-02  -8.3215912335846520e-02  -9.6871252488244478e-02  -1.1068642079952262e-01  -1.2434449857267242e-01  -1.3753362543353545e-01  -1.4995354344155010e-01  -1.6132114165168826e-01  -1.7137490638165256e-01  -1.7987828074836504e-01  -1.8662202808322523e-01  -1.9142576600611705e-01  -1.9413888313707464e-01  -1.9464106482364329e-01  -1.9284263813134514e-01  -1.8868490329061094e-01  -1.8214055480693306e-01  -1.7321421807386780e-01  -1.6194304514029831e-01  -1.4839723550315007e-01  -1.3268028400039042e-01  -1.1492871742599813e-01  -9.5311072525167184e-02  -7.4025896041400446e-02  -5.1298613640468130e-02  -2.7377214261874130e-02  -2.5268189042913173e-03  2.2976668242245053e-02  4.8853512367996892e-02  7.4827305947506098e-02  1.0063189498299031e-01  1.2601765017776853e-01  1.5075672257547987e-01  1.7464702418930103e-01  1.9751479615404316e-01  2.1921575113895017e-01  2.3963488642504407e-01  2.5868514739838844e-01  2.7630517270547250e-01  2.9245637237888689e-01  3.0711958380051502e-01  3.2029152489616158e-01  3.3198122756330506e-01  3.4220659439140583e-01  3.5099118429617998e-01  3.5836130317923653e-01  3.6434346217824259e-01  3.6896228877340287e-01  3.7223909104272168e-01  3.7419159960496134e-01  3.7483586596689011e-01  2.7352193512021084e-01  2.7239331076848561e-01  2.6901261199413518e-01  2.6341071734757249e-01  2.5562483912421408e-01  2.4570374435843173e-01  2.3371389844014129e-01  2.1974510381474685e-01  2.0391555915630577e-01  1.8637620839848787e-01  1.6731404764865462e-01  1.4695395274956616e-01  1.2555859489611473e-01  1.0342610951173824e-01  8.0885355568688311e-02  5.8288824247442923e-02  3.6003494380260133e-02  1.4400148701239431e-02  -6.1581780929160857e-03  -2.5327878576664995e-02  -4.2795865401209332e-02  -5.8289477658801624e-02  -7.1584772762390864e-02  -8.2512967648299018e-02  -9.0964966401316016e-02  -9.6894036922755916e-02  -1.0031676303997009e-01  -1.0131240331291554e-01  -1.0002075071914271e-01  -9.6638533985445821e-02  -9.1414358891984460e-02  -8.4642178754178232e-02  -7.6653319676979609e-02  -6.7807167318455500e-02  -5.8480734327832851e-02  -4.9057448480478036e-02  -3.9915604337739823e-02  -3.1416982728229265e-02  -2.3896148399496268e-02  -1.7650885382889402e-02  -1.2934132981443290e-02  -9.9476627278892605e-03  -8.8376111408494974e-03  -9.6918745984562772e-03  -1.2539293528119725e-02  -1.7350506209988084e-02  -2.4040331951667777e-02  -3.2471537718641960e-02  -4.2459838515955285e-02  -5.3779969484267560e-02  -6.6172641858130182e-02  -7.9352157380868010e-02  -9.3014414189222586e-02  -1.0684500290640046e-01  -1.2052707638865541e-01  -1.3374868895821995e-01  -1.4620934430725255e-01  -1.5762556249174781e-01  -1.6773536681469958e-01  -1.7630168856859321e-01  -1.8311477827271080e-01  -1.8799378451416368e-01  -1.9078770752155555e-01  -1.9137595014065154e-01  -1.8966867403297202e-01  -1.8560712715968403e-01  -1.7916404586979404e-01  -1.7034415871965158e-01  -1.5918473807619626e-01  -1.4575606882440917e-01  -1.3016164064310329e-01  -1.1253783059562682e-01  -9.3052834206468371e-02  -7.1904631087581938e-02  -4.9317836573432070e-02  -2.5539389111949334e-02  -8.3314358783444979e-04  2.4526432718542102e-02  5.0261151176790593e-02  7.6096187057842532e-02  1.0176692881010609e-01  1.2702517505139369e-01  1.5164432523522559e-01  1.7542330947181606e-01  1.9818912305118710e-01  2.1979795337156538e-01  2.4013499481747416e-01  2.5911312911264811e-01  2.7667069936802957e-01  2.9276862587164748e-01  3.0738710548047377e-01  3.2052211165345212e-01  3.3218187677276534e-01  3.4238349984133731e-01  3.5114978705624417e-01  3.5850640524615357e-01  3.6447941381707588e-01  3.6909324545609606e-01  3.7236922953909224e-01  3.7432474609236027e-01  3.7497278778806553e-01  2.6166380816778551e-01  2.6055965272243903e-01  2.5723530047051812e-01  2.5171547658601506e-01  2.4403731982313739e-01  2.3425268539493641e-01  2.2243236276997752e-01  2.0867080360186349e-01  1.9309071619239421e-01  1.7584708326415527e-01  1.5713016222057050e-01  1.3716701594092656e-01  1.1622116272031377e-01  9.4590042237667440e-02  7.2600164815380230e-02  5.0600024073747925e-02  2.8951077921791166e-02  8.0173033426379301e-03  -1.1846027979748954e-02  -3.0303647904660943e-02  -4.7050991390495567e-02  -6.1823737016432137e-02  -7.4405792216170899e-02  -8.4635506608017913e-02  -9.2410056330464341e-02  -9.7688055250997163e-02  -1.0049050344435119e-01  -1.0090018337978830e-01  -9.9059576910221964e-02  -9.5167326289335538e-02  -8.9473226107292414e-02  -8.2271731086288921e-02  -7.3894007828729180e-02  -6.4698644870633759e-02  -5.5061250465926657e-02  -4.5363288252159843e-02  -3.5980601097317225e-02  -2.7272130453704923e-02  -1.9569339411205883e-02  -1.3166792001766774e-02  -8.3142410912899652e-03  -5.2104528297146147e-03  -3.9988701925387756e-03  -4.7651113503327973e-03  -7.5362223580445779e-03  -1.2281560271467606e-02  -1.8915165954072836e-02  -2.7299483686946031e-02  -3.7250284001121993e-02  -4.8542636289087664e-02  -6.0917753602583370e-02  -7.4090495187210198e-02  -8.7757270333572487e-02  -1.0160405135747835e-01  -1.1531418576409397e-01  -1.2857570689630507e-01  -1.4108788231758240e-01  -1.5256680721816088e-01  -1.6274993793895659e-01  -1.7139955620528499e-01  -1.7830524465790537e-01  -1.8328552700368886e-01  -1.8618887312318033e-01  -1.8689428648796882e-01  -1.8531167810683594e-01  -1.8138219123456328e-01  -1.7507858006435731e-01  -1.6640567108514584e-01  -1.5540085628301914e-01  -1.4213449211626247e-01  -1.2671001667015355e-01  -1.0926355873588257e-01  -8.9962804568534491e-02  -6.9004915869197672e-02  -4.6613356957702759e-02  -2.3033585476888219e-02  1.4723213476016497e-03  2.6631909611021451e-02  5.2169155177282107e-02  7.7811448429481886e-02  1.0329633652266794e-01  1.2837761672695919e-01  1.5283043587875214e-01  1.7645514850721364e-01  1.9907980358756319e-01  2.2056124914573594e-01  2.4078494917184590e-01  2.5966368728840217e-01  2.7713538110436309e-01  2.9316025058267264e-01  3.0771757778677067e-01  3.2080227123815447e-01  3.3242141365822764e-01  3.4259093422762965e-01  3.5133251134667404e-01  3.5867078313515777e-01  3.6463092243640144e-01  3.6923661904181398e-01  3.7250849225620875e-01  3.7446289346166928e-01  3.7511087095760731e-01  2.4661082451136787e-01  2.4553029100715471e-01  2.4226690680987512e-01  2.3684355006958391e-01  2.2929821553469762e-01  2.1968584864362181e-01  2.0808166307860901e-01  1.9458512820766885e-01  1.7932399526043014e-01  1.6245783661604613e-01  1.4418060977959707e-01  1.2472178879194500e-01  1.0434567255258551e-01  8.3348598804024301e-02  6.2053962308833914e-02  4.0805139144238126e-02  1.9956628195083800e-02  -1.3609725348637429e-04  -1.9127411231052684e-02  -3.6692368623349896e-02  -5.2536927823920408e-02  -6.6407049646969751e-02  -7.8096313894035416e-02  -8.7451859732398149e-02  -9.4378598995922061e-02  -9.8841749475839541e-02  -1.0086777885409838e-01  -1.0054384440622384e-01  -9.8015776167017066e-02  -9.3484605900102116e-02  -8.7201615461491036e-02  -7.9461885024735571e-02  -7.0596373045219818e-02  -6.0962652267337866e-02  -5.0934544208150370e-02  -4.0891014863918024e-02  -3.1204790997972527e-02  -2.2231207685144774e-02  -1.4297792098023050e-02  -7.6950268548318388e-03  -2.6686316516888256e-03  5.8642457026193630e-04  1.9300938523979967e-03  1.2796193013758029e-03  -1.3898049299748997e-03  -6.0459547316526032e-03  -1.2601936879090612e-02  -2.0919850471249155e-02  -3.0815612886059784e-02  -4.2064807337345821e-02  -5.4409387046629544e-02  -6.7565035125570022e-02  -8.1228936938454815e-02  -9.5087684250479060e-02  -1.0882500979943406e-01  -1.2212905637570266e-01  -1.3469892025173216e-01  -1.4625027281886518e-01  -1.5651994877041914e-01  -1.6526948241532011e-01  -1.7228766268405371e-01  -1.7739225028523239e-01  -1.8043104860801998e-01  -1.8128253876123970e-01  -1.7985627814372854e-01  -1.7609322421512150e-01  -1.6996608636079330e-01  -1.6147973635762083e-01  -1.5067163049438348e-01  -1.3761212307056103e-01  -1.2240449118396618e-01  -1.0518445339380431e-01  -8.6118957584454231e-02  -6.5404040995076421e-02  -4.3261628552108931e-02  -1.9935229587971157e-02  4.3153927543916164e-03  2.9220385990876459e-02  5.4506507030822583e-02  7.9903979482866941e-02  1.0515310056413765e-01  1.3001020367679467e-01  1.5425264308368694e-01  1.7768256217238873e-01  2.0012932078938753e-01  2.2145057274948260e-01  2.4153208654770197e-01  2.6028647975006430e-01  2.7765108546453271e-01  2.9358518810079293e-01  3.0806685987336935e-01  3.2108960610312448e-01  3.3265899385375292e-01  3.4278940158037141e-01  3.5150099244741134e-01  3.5881698392509870e-01  3.6476126188828822e-01  3.6935636609751077e-01  3.7262184808871474e-01  3.7457295971563637e-01  3.7521956866385942e-01  2.2847749690779773e-01  2.2742300217208214e-01  2.2422920098111851e-01  2.1891932981988135e-01  2.1153336429543801e-01  2.0212984676287779e-01  1.9078875235057499e-01  1.7761491229133766e-01  1.6274147650618845e-01  1.4633291071059507e-01  1.2858704599530452e-01  1.0973574116319866e-01  9.0043797488638860e-02  6.9805890653821798e-02  4.9341451326940747e-02  2.8987617752429931e-02  9.0905750665914425e-03  -1.0004242846231567e-02  -2.7962508868469887e-02  -4.4471304599801913e-02  -5.9248802325171143e-02  -7.2052866922295705e-02  -8.2688260202581076e-02  -9.1012277977897474e-02  -9.6938774534407579e-02  -1.0044061057522498e-01  -1.0155059238468712e-01  -1.0036095862521743e-01  -9.7021434072862608e-02  -9.1735829695959059e-02  -8.4757148556781417e-02  -7.6381174011364295e-02  -6.6938577435753030e-02  -5.6785681964516437e-02  -4.6294140031729804e-02  -3.5839901962709288e-02  -2.5791945043709137e-02  -1.6501276955765063e-02  -8.2907140571145121e-03  -1.4458663705932675e-03  3.7923484122561004e-03  7.2334683195577161e-03  8.7414589705529788e-03  8.2369267670291020e-03  5.6976744913136189e-03  1.1577342789618245e-03  -5.2949800235547748e-03  -1.3522266193483285e-02  -2.3340345143355007e-02  -3.4525559768068419e-02  -4.6820910702048565e-02  -5.9943243878322748e-02  -7.3590862235699162e-02  -8.7451294688629042e-02  -1.0120893158924292e-01  -1.1455223702857496e-01  -1.2718027918338495e-01  -1.3880837912589244e-01  -1.4917275891398318e-01  -1.5803416014713695e-01  -1.6518049171329285e-01  -1.7042863833196154e-01  -1.7362561081515282e-01  -1.7464923979855415e-01  -1.7340860623545537e-01  -1.6984436696503746e-01  -1.6392907765029754e-01  -1.5566754566734112e-01  -1.4509717061601785e-01  -1.3228815914980852e-01  -1.1734344307600118e-01  -1.0039809393116150e-01  -8.1618020786668632e-02  -6.1197765416888997e-02  -3.9357270556130877e-02  -1.6337587949069352e-02  7.6043970558905480e-03  3.2202033381076273e-02  5.7185472324313154e-02  8.2288371702465848e-02  1.0725434119277384e-01  1.3184274973483706e-01  1.5583357488432914e-01  1.7903106605230176e-01  2.0126610349883070e-01  2.2239724623086277e-01  2.4231055995142373e-01  2.6091839065280220e-01  2.7815729552828444e-01  2.9398536098402178e-01  3.0837913200845546e-01  3.2133035459260550e-01  3.3284270045172248e-01  3.4292860739205150e-01  3.5160633413178410e-01  3.5889729807453657e-01  3.6482373917661742e-01  3.6940673129087637e-01  3.7266454137759369e-01  3.7461131539284509e-01  3.7525605677337776e-01  2.0742111834497698e-01  2.0639617701005727e-01  2.0328256200233558e-01  1.9810495610702419e-01  1.9090611970564317e-01  1.8174868918658194e-01  1.7071772089907294e-01  1.5792363555110753e-01  1.4350513310093058e-01  1.2763162117862104e-01  1.1050470888053740e-01  9.2358361455769575e-02  7.3457395383265178e-02  5.4094119089253330e-02  3.4583084780931493e-02  1.5254094753924530e-02  -3.5562228837269141e-03  -2.1513815048733283e-02  -3.8297042743238786e-02  -5.3606402938505000e-02  -6.7173627205338704e-02  -7.8769752427476344e-02  -8.8211888268176317e-02  -9.5368535428908136e-02  -1.0016341341441282e-01  -1.0257782061204193e-01  -1.0265156906213693e-01  -1.0048251936981703e-01  -9.6224705046502088e-02  -9.0085001993498254e-02  -8.2318288720139493e-02  -7.3221070906400954e-02  -6.3123614672280712e-02  -5.2380739278009909e-02  -4.1361544283670483e-02  -3.0438464208192659e-02  -1.9976130585350749e-02  -1.0320557916010196e-02  -1.7891479916679960e-03  5.3380691841659030e-03  1.0825654458369522e-02  1.4488266096857605e-02  1.6194405260147052e-02  1.5868450274272021e-02  1.3491092965207412e-02  9.0983185748238771e-03  2.7790721000694866e-03  -5.3282585503288005e-03  -1.5040424326843389e-02  -2.6134844065915042e-02  -3.8355946389481976e-02  -5.1422156989301193e-02  -6.5033321285798501e-02  -7.8878311528950931e-02  -9.2642540166851806e-02  -1.0601509772108107e-01  -1.1869525879029333e-01  -1.3039815349535719e-01  -1.4085947725518502e-01  -1.4983919860684994e-01  -1.5712431038965538e-01  -1.6253074220506564e-01  -1.6590460252810194e-01  -1.6712294189741983e-01  -1.6609422304360480e-01  -1.6275865204794548e-01  -1.5708847189286551e-01  -1.4908825325979236e-01  -1.3879514556222908e-01  -1.2627898302301030e-01  -1.1164208525780427e-01  -9.5018557855103242e-02  -7.6572892829330441e-02  -5.6497695769214984e-02  -3.5010426146746307e-02  -1.2349124712036244e-02  1.1232792900001164e-02  3.5472488593336376e-02  6.0104116815424130e-02  8.4865351334994607e-02  1.0950364517732473e-01  1.3378186141522344e-01  1.5748296988213364e-01  1.8041359338831184e-01  2.0240629228622822e-01  2.2332058256034609e-01  2.4304277616662626e-01  2.6148480341037972e-01  2.7858222117561582e-01  2.9429162816510918e-01  3.0858770307827027e-01  3.2146006007400602e-01  3.3291008471379330e-01  3.4294787893152673e-01  3.5158941003197625e-01  3.5885392908407798e-01  3.6476169940964270e-01  3.6933205589082468e-01  3.7258179985938283e-01  3.7452392330180895e-01  3.7516665551964479e-01  1.8364422792708718e-01  1.8265269765094505e-01  1.7963078071876029e-01