<?xml version="1.0"?>
<VTKFile type="UnstructuredGrid"  version="0.1"  >
<UnstructuredGrid>
<Piece  NumberOfPoints="10201" NumberOfCells="20000">
<Points>
<DataArray  type="Float64"  NumberOfComponents="3"  format="ascii">0 0 0  0.25 0 0  0.5 0 0  0.75 0 0  1 0 0  1.25 0 0  1.5 0 0  1.75 0 0  2 0 0  2.25 0 0  2.5 0 0  2.75 0 0  3 0 0  3.25 0 0  3.5 0 0  3.75 0 0  4 0 0  4.25 0 0  4.5 0 0  4.75 0 0  5 0 0  5.25 0 0  5.5 0 0  5.75 0 0  6 0 0  6.25 0 0  6.5 0 0  6.75 0 0  7 0 0  7.25 0 0  7.5 0 0  7.75 0 0  8 0 0  8.25 0 0  8.5 0 0  8.75 0 0  9 0 0  9.25 0 0  9.5 0 0  9.75 0 0  10 0 0  10.25 0 0  10.5 0 0  10.75 0 0  11 0 0  11.25 0 0  11.5 0 0  11.75 0 0  12 0 0  12.25 0 0  12.5 0 0  12.75 0 0  13 0 0  13.25 0 0  13.5 0 0  13.75 0 0  14 0 0  14.25 0 0  14.5 0 0  14.75 0 0  15 0 0  15.25 0 0  15.5 0 0  15.75 0 0  16 0 0  16.25 0 0  16.5 0 0  16.75 0 0  17 0 0  17.25 0 0  17.5 0 0  17.75 0 0  18 0 0  18.25 0 0  18.5 0 0  18.75 0 0  19 0 0  19.25 0 0  19.5 0 0  19.75 0 0  20 0 0  20.25 0 0  20.5 0 0  20.75 0 0  21 0 0  21.25 0 0  21.5 0 0  21.75 0 0  22 0 0  22.25 0 0  22.5 0 0  22.75 0 0  23 0 0  23.25 0 0  23.5 0 0  23.75 0 0  24 0 0  24.25 0 0  24.5 0 0  24.75 0 0  25 0 0  0 0.25 0  0.25 0.25 0  0.5 0.25 0  0.75 0.25 0  1 0.25 0  1.25 0.25 0  1.5 0.25 0  1.75 0.25 0  2 0.25 0  2.25 0.25 0  2.5 0.25 0  2.75 0.25 0  3 0.25 0  3.25 0.25 0  3.5 0.25 0  3.75 0.25 0  4 0.25 0  4.25 0.25 0  4.5 0.25 0  4.75 0.25 0  5 0.25 0  5.25 0.25 0  5.5 0.25 0  5.75 0.25 0  6 0.25 0  6.25 0.25 0  6.5 0.25 0  6.75 0.25 0  7 0.25 0  7.25 0.25 0  7.5 0.25 0  7.75 0.25 0  8 0.25 0  8.25 0.25 0  8.5 0.25 0  8.75 0.25 0  9 0.25 0  9.25 0.25 0  9.5 0.25 0  9.75 0.25 0  10 0.25 0  10.25 0.25 0  10.5 0.25 0  10.75 0.25 0  11 0.25 0  11.25 0.25 0  11.5 0.25 0  11.75 0.25 0  12 0.25 0  12.25 0.25 0  12.5 0.25 0  12.75 0.25 0  13 0.25 0  13.25 0.25 0  13.5 0.25 0  13.75 0.25 0  14 0.25 0  14.25 0.25 0  14.5 0.25 0  14.75 0.25 0  15 0.25 0  15.25 0.25 0  15.5 0.25 0  15.75 0.25 0  16 0.25 0  16.25 0.25 0  16.5 0.25 0  16.75 0.25 0  17 0.25 0  17.25 0.25 0  17.5 0.25 0  17.75 0.25 0  18 0.25 0  18.25 0.25 0  18.5 0.25 0  18.75 0.25 0  19 0.25 0  19.25 0.25 0  19.5 0.25 0  19.75 0.25 0  20 0.25 0  20.25 0.25 0  20.5 0.25 0  20.75 0.25 0  21 0.25 0  21.25 0.25 0  21.5 0.25 0  21.75 0.25 0  22 0.25 0  22.25 0.25 0  22.5 0.25 0  22.75 0.25 0  23 0.25 0  23.25 0.25 0  23.5 0.25 0  23.75 0.25 0  24 0.25 0  24.25 0.25 0  24.5 0.25 0  24.75 0.25 0  25 0.25 0  0 0.5 0  0.25 0.5 0  0.5 0.5 0  0.75 0.5 0  1 0.5 0  1.25 0.5 0  1.5 0.5 0  1.75 0.5 0  2 0.5 0  2.25 0.5 0  2.5 0.5 0  2.75 0.5 0  3 0.5 0  3.25 0.5 0  3.5 0.5 0  3.75 0.5 0  4 0.5 0  4.25 0.5 0  4.5 0.5 0  4.75 0.5 0  5 0.5 0  5.25 0.5 0  5.5 0.5 0  5.75 0.5 0  6 0.5 0  6.25 0.5 0  6.5 0.5 0  6.75 0.5 0  7 0.5 0  7.25 0.5 0  7.5 0.5 0  7.75 0.5 0  8 0.5 0  8.25 0.5 0  8.5 0.5 0  8.75 0.5 0  9 0.5 0  9.25 0.5 0  9.5 0.5 0  9.75 0.5 0  10 0.5 0  10.25 0.5 0  10.5 0.5 0  10.75 0.5 0  11 0.5 0  11.25 0.5 0  11.5 0.5 0  11.75 0.5 0  12 0.5 0  12.25 0.5 0  12.5 0.5 0  12.75 0.5 0  13 0.5 0  13.25 0.5 0  13.5 0.5 0  13.75 0.5 0  14 0.5 0  14.25 0.5 0  14.5 0.5 0  14.75 0.5 0  15 0.5 0  15.25 0.5 0  15.5 0.5 0  15.75 0.5 0  16 0.5 0  16.25 0.5 0  16.5 0.5 0  16.75 0.5 0  17 0.5 0  17.25 0.5 0  17.5 0.5 0  17.75 0.5 0  18 0.5 0  18.25 0.5 0  18.5 0.5 0  18.75 0.5 0  19 0.5 0  19.25 0.5 0  19.5 0.5 0  19.75 0.5 0  20 0.5 0  20.25 0.5 0  20.5 0.5 0  20.75 0.5 0  21 0.5 0  21.25 0.5 0  21.5 0.5 0  21.75 0.5 0  22 0.5 0  22.25 0.5 0  22.5 0.5 0  22.75 0.5 0  23 0.5 0  23.25 0.5 0  23.5 0.5 0  23.75 0.5 0  24 0.5 0  24.25 0.5 0  24.5 0.5 0  24.75 0.5 0  25 0.5 0  0 0.75 0  0.25 0.75 0  0.5 0.75 0  0.75 0.75 0  1 0.75 0  1.25 0.75 0  1.5 0.75 0  1.75 0.75 0  2 0.75 0  2.25 0.75 0  2.5 0.75 0  2.75 0.75 0  3 0.75 0  3.25 0.75 0  3.5 0.75 0  3.75 0.75 0  4 0.75 0  4.25 0.75 0  4.5 0.75 0  4.75 0.75 0  5 0.75 0  5.25 0.75 0  5.5 0.75 0  5.75 0.75 0  6 0.75 0  6.25 0.75 0  6.5 0.75 0  6.75 0.75 0  7 0.75 0  7.25 0.75 0  7.5 0.75 0  7.75 0.75 0  8 0.75 0  8.25 0.75 0  8.5 0.75 0  8.75 0.75 0  9 0.75 0  9.25 0.75 0  9.5 0.75 0  9.75 0.75 0  10 0.75 0  10.25 0.75 0  10.5 0.75 0  10.75 0.75 0  11 0.75 0  11.25 0.75 0  11.5 0.75 0  11.75 0.75 0  12 0.75 0  12.25 0.75 0  12.5 0.75 0  12.75 0.75 0  13 0.75 0  13.25 0.75 0  13.5 0.75 0  13.75 0.75 0  14 0.75 0  14.25 0.75 0  14.5 0.75 0  14.75 0.75 0  15 0.75 0  15.25 0.75 0  15.5 0.75 0  15.75 0.75 0  16 0.75 0  16.25 0.75 0  16.5 0.75 0  16.75 0.75 0  17 0.75 0  17.25 0.75 0  17.5 0.75 0  17.75 0.75 0  18 0.75 0  18.25 0.75 0  18.5 0.75 0  18.75 0.75 0  19 0.75 0  19.25 0.75 0  19.5 0.75 0  19.75 0.75 0  20 0.75 0  20.25 0.75 0  20.5 0.75 0  20.75 0.75 0  21 0.75 0  21.25 0.75 0  21.5 0.75 0  21.75 0.75 0  22 0.75 0  22.25 0.75 0  22.5 0.75 0  22.75 0.75 0  23 0.75 0  23.25 0.75 0  23.5 0.75 0  23.75 0.75 0  24 0.75 0  24.25 0.75 0  24.5 0.75 0  24.75 0.75 0  25 0.75 0  0 1 0  0.25 1 0  0.5 1 0  0.75 1 0  1 1 0  1.25 1 0  1.5 1 0  1.75 1 0  2 1 0  2.25 1 0  2.5 1 0  2.75 1 0  3 1 0  3.25 1 0  3.5 1 0  3.75 1 0  4 1 0  4.25 1 0  4.5 1 0  4.75 1 0  5 1 0  5.25 1 0  5.5 1 0  5.75 1 0  6 1 0  6.25 1 0  6.5 1 0  6.75 1 0  7 1 0  7.25 1 0  7.5 1 0  7.75 1 0  8 1 0  8.25 1 0  8.5 1 0  8.75 1 0  9 1 0  9.25 1 0  9.5 1 0  9.75 1 0  10 1 0  10.25 1 0  10.5 1 0  10.75 1 0  11 1 0  11.25 1 0  11.5 1 0  11.75 1 0  12 1 0  12.25 1 0  12.5 1 0  12.75 1 0  13 1 0  13.25 1 0  13.5 1 0  13.75 1 0  14 1 0  14.25 1 0  14.5 1 0  14.75 1 0  15 1 0  15.25 1 0  15.5 1 0  15.75 1 0  16 1 0  16.25 1 0  16.5 1 0  16.75 1 0  17 1 0  17.25 1 0  17.5 1 0  17.75 1 0  18 1 0  18.25 1 0  18.5 1 0  18.75 1 0  19 1 0  19.25 1 0  19.5 1 0  19.75 1 0  20 1 0  20.25 1 0  20.5 1 0  20.75 1 0  21 1 0  21.25 1 0  21.5 1 0  21.75 1 0  22 1 0  22.25 1 0  22.5 1 0  22.75 1 0  23 1 0  23.25 1 0  23.5 1 0  23.75 1 0  24 1 0  24.25 1 0  24.5 1 0  24.75 1 0  25 1 0  0 1.25 0  0.25 1.25 0  0.5 1.25 0  0.75 1.25 0  1 1.25 0  1.25 1.25 0  1.5 1.25 0  1.75 1.25 0  2 1.25 0  2.25 1.25 0  2.5 1.25 0  2.75 1.25 0  3 1.25 0  3.25 1.25 0  3.5 1.25 0  3.75 1.25 0  4 1.25 0  4.25 1.25 0  4.5 1.25 0  4.75 1.25 0  5 1.25 0  5.25 1.25 0  5.5 1.25 0  5.75 1.25 0  6 1.25 0  6.25 1.25 0  6.5 1.25 0  6.75 1.25 0  7 1.25 0  7.25 1.25 0  7.5 1.25 0  7.75 1.25 0  8 1.25 0  8.25 1.25 0  8.5 1.25 0  8.75 1.25 0  9 1.25 0  9.25 1.25 0  9.5 1.25 0  9.75 1.25 0  10 1.25 0  10.25 1.25 0  10.5 1.25 0  10.75 1.25 0  11 1.25 0  11.25 1.25 0  11.5 1.25 0  11.75 1.25 0  12 1.25 0  12.25 1.25 0  12.5 1.25 0  12.75 1.25 0  13 1.25 0  13.25 1.25 0  13.5 1.25 0  13.75 1.25 0  14 1.25 0  14.25 1.25 0  14.5 1.25 0  14.75 1.25 0  15 1.25 0  15.25 1.25 0  15.5 1.25 0  15.75 1.25 0  16 1.25 0  16.25 1.25 0  16.5 1.25 0  16.75 1.25 0  17 1.25 0  17.25 1.25 0  17.5 1.25 0  17.75 1.25 0  18 1.25 0  18.25 1.25 0  18.5 1.25 0  18.75 1.25 0  19 1.25 0  19.25 1.25 0  19.5 1.25 0  19.75 1.25 0  20 1.25 0  20.25 1.25 0  20.5 1.25 0  20.75 1.25 0  21 1.25 0  21.25 1.25 0  21.5 1.25 0  21.75 1.25 0  22 1.25 0  22.25 1.25 0  22.5 1.25 0  22.75 1.25 0  23 1.25 0  23.25 1.25 0  23.5 1.25 0  23.75 1.25 0  24 1.25 0  24.25 1.25 0  24.5 1.25 0  24.75 1.25 0  25 1.25 0  0 1.5 0  0.25 1.5 0  0.5 1.5 0  0.75 1.5 0  1 1.5 0  1.25 1.5 0  1.5 1.5 0  1.75 1.5 0  2 1.5 0  2.25 1.5 0  2.5 1.5 0  2.75 1.5 0  3 1.5 0  3.25 1.5 0  3.5 1.5 0  3.75 1.5 0  4 1.5 0  4.25 1.5 0  4.5 1.5 0  4.75 1.5 0  5 1.5 0  5.25 1.5 0  5.5 1.5 0  5.75 1.5 0  6 1.5 0  6.25 1.5 0  6.5 1.5 0  6.75 1.5 0  7 1.5 0  7.25 1.5 0  7.5 1.5 0  7.75 1.5 0  8 1.5 0  8.25 1.5 0  8.5 1.5 0  8.75 1.5 0  9 1.5 0  9.25 1.5 0  9.5 1.5 0  9.75 1.5 0  10 1.5 0  10.25 1.5 0  10.5 1.5 0  10.75 1.5 0  11 1.5 0  11.25 1.5 0  11.5 1.5 0  11.75 1.5 0  12 1.5 0  12.25 1.5 0  12.5 1.5 0  12.75 1.5 0  13 1.5 0  13.25 1.5 0  13.5 1.5 0  13.75 1.5 0  14 1.5 0  14.25 1.5 0  14.5 1.5 0  14.75 1.5 0  15 1.5 0  15.25 1.5 0  15.5 1.5 0  15.75 1.5 0  16 1.5 0  16.25 1.5 0  16.5 1.5 0  16.75 1.5 0  17 1.5 0  17.25 1.5 0  17.5 1.5 0  17.75 1.5 0  18 1.5 0  18.25 1.5 0  18.5 1.5 0  18.75 1.5 0  19 1.5 0  19.25 1.5 0  19.5 1.5 0  19.75 1.5 0  20 1.5 0  20.25 1.5 0  20.5 1.5 0  20.75 1.5 0  21 1.5 0  21.25 1.5 0  21.5 1.5 0  21.75 1.5 0  22 1.5 0  22.25 1.5 0  22.5 1.5 0  22.75 1.5 0  23 1.5 0  23.25 1.5 0  23.5 1.5 0  23.75 1.5 0  24 1.5 0  24.25 1.5 0  24.5 1.5 0  24.75 1.5 0  25 1.5 0  0 1.75 0  0.25 1.75 0  0.5 1.75 0  0.75 1.75 0  1 1.75 0  1.25 1.75 0  1.5 1.75 0  1.75 1.75 0  2 1.75 0  2.25 1.75 0  2.5 1.75 0  2.75 1.75 0  3 1.75 0  3.25 1.75 0  3.5 1.75 0  3.75 1.75 0  4 1.75 0  4.25 1.75 0  4.5 1.75 0  4.75 1.75 0  5 1.75 0  5.25 1.75 0  5.5 1.75 0  5.75 1.75 0  6 1.75 0  6.25 1.75 0  6.5 1.75 0  6.75 1.75 0  7 1.75 0  7.25 1.75 0  7.5 1.75 0  7.75 1.75 0  8 1.75 0  8.25 1.75 0  8.5 1.75 0  8.75 1.75 0  9 1.75 0  9.25 1.75 0  9.5 1.75 0  9.75 1.75 0  10 1.75 0  10.25 1.75 0  10.5 1.75 0  10.75 1.75 0  11 1.75 0  11.25 1.75 0  11.5 1.75 0  11.75 1.75 0  12 1.75 0  12.25 1.75 0  12.5 1.75 0  12.75 1.75 0  13 1.75 0  13.25 1.75 0  13.5 1.75 0  13.75 1.75 0  14 1.75 0  14.25 1.75 0  14.5 1.75 0  14.75 1.75 0  15 1.75 0  15.25 1.75 0  15.5 1.75 0  15.75 1.75 0  16 1.75 0  16.25 1.75 0  16.5 1.75 0  16.75 1.75 0  17 1.75 0  17.25 1.75 0  17.5 1.75 0  17.75 1.75 0  18 1.75 0  18.25 1.75 0  18.5 1.75 0  18.75 1.75 0  19 1.75 0  19.25 1.75 0  19.5 1.75 0  19.75 1.75 0  20 1.75 0  20.25 1.75 0  20.5 1.75 0  20.75 1.75 0  21 1.75 0  21.25 1.75 0  21.5 1.75 0  21.75 1.75 0  22 1.75 0  22.25 1.75 0  22.5 1.75 0  22.75 1.75 0  23 1.75 0  23.25 1.75 0  23.5 1.75 0  23.75 1.75 0  24 1.75 0  24.25 1.75 0  24.5 1.75 0  24.75 1.75 0  25 1.75 0  0 2 0  0.25 2 0  0.5 2 0  0.75 2 0  1 2 0  1.25 2 0  1.5 2 0  1.75 2 0  2 2 0  2.25 2 0  2.5 2 0  2.75 2 0  3 2 0  3.25 2 0  3.5 2 0  3.75 2 0  4 2 0  4.25 2 0  4.5 2 0  4.75 2 0  5 2 0  5.25 2 0  5.5 2 0  5.75 2 0  6 2 0  6.25 2 0  6.5 2 0  6.75 2 0  7 2 0  7.25 2 0  7.5 2 0  7.75 2 0  8 2 0  8.25 2 0  8.5 2 0  8.75 2 0  9 2 0  9.25 2 0  9.5 2 0  9.75 2 0  10 2 0  10.25 2 0  10.5 2 0  10.75 2 0  11 2 0  11.25 2 0 
[...]
<PointData  Scalars="f_23"> 
<DataArray  type="Float64"  Name="f_23"  format="ascii">-1.2666071458772499e-01  -1.2366444808626634e-01  -1.1631951100082938e-01  -1.0448579322731090e-01  -8.8240449134730906e-02  -6.7764303027263009e-02  -4.3316432271252786e-02  -1.5228061002888616e-02  1.6100922487068389e-02  5.0207793405384345e-02  8.6576925889936582e-02  1.2465420788095065e-01  1.6386532909271220e-01  2.0363655810341119e-01  2.4341610809465455e-01  2.8269402195009458e-01  3.2101871107554941e-01  3.5800879693178839e-01  3.9335959885972410e-01  4.2684432785370469e-01  4.5831064437216834e-01  4.8767363240810380e-01  5.1490640809451582e-01  5.4002954788236457e-01  5.6310034832138633e-01  5.8420268396869501e-01  6.0343796998849497e-01  6.2091750192421880e-01  6.3675625844098227e-01  6.5106811970501444e-01  6.6396237046111573e-01  6.7554131352326685e-01  6.8589880552391003e-01  6.9511953237168178e-01  7.0327885882226471e-01  7.1044310890121720e-01  7.1667015761528674e-01  7.2201023699157163e-01  7.2650687966074545e-01  7.3019794037163865e-01  7.3311664987395941e-01  7.3529266668343962e-01  7.3675310064029509e-01  7.3752348825132719e-01  7.3762870397169089e-01  7.3709379426431232e-01  7.3594472292371294e-01  7.3420901722991538e-01  7.3191630546783359e-01  7.2909873764043986e-01  7.2579128318829644e-01  7.2203190246512483e-01  7.1786159271951822e-01  7.1332431431907661e-01  7.0846680863797395e-01  7.0333832491832071e-01  6.9799027884276055e-01  6.9247586974706721e-01  6.8684968557275861e-01  6.8116732413075787e-01  6.7548505556147231e-01  6.6985954390762403e-01  6.6434763574139455e-01  6.5900621151753391e-01  6.5389208187663006e-01  6.4906189794045666e-01  6.4457203336023916e-01  6.4047838815809111e-01  6.3683606173186735e-01  6.3369884589822401e-01  6.3111849910341633e-01  6.2914377981618186e-01  6.2781923972384968e-01  6.2718380396924567e-01  6.2726919385293645e-01  6.2809827420035613e-01  6.2968342971956537e-01  6.3202508903991961e-01  6.3511051916568795e-01  6.3891300522030070e-01  6.4339151033835940e-01  6.4849087964168151e-01  6.5414261316440658e-01  6.6026618935092674e-01  6.6677087805462909e-01  6.7355794461210572e-01  6.8052311873100579e-01  6.8755918653878467e-01  6.9455856245637604e-01  7.0141570904154571e-01  7.0802929539833837e-01  7.1430401472078076e-01  7.2015201481321167e-01  7.2549392738234442e-01  7.3025950726492739e-01  7.3438790347087568e-01  7.3782755993960725e-01  7.4053561533258871e-01  7.4247615207904516e-01  7.4361445877981336e-01  7.4389456959537659e-01  -1.2460572173544456e-01  -1.2207774538415672e-01  -1.1487129981966147e-01  -1.0310918434412367e-01  -8.6927493780105725e-02  -6.6521522152562962e-02  -4.2154113655601309e-02  -1.4157158287892633e-02  1.7070032613784647e-02  5.1066030341805096e-02  8.7317014061979545e-02  1.2527103496441397e-01  1.6435615212235952e-01  2.0400105159207055e-01  2.4365626147808511e-01  2.8281390982490234e-01  3.2102417172250153e-01  3.5790705955459695e-01  3.9315889786424280e-01  4.2655353531165058e-01  4.5793894222987375e-01  4.8723023639161794e-01  5.1440034717860494e-01  5.3946949729497695e-01  5.6249451034530051e-01  5.8355870891566464e-01  6.0276290918014630e-01  6.2021778486856083e-01  6.3603768728013377e-01  6.5033587515831026e-01  6.6322102470752564e-01  6.7479484663018219e-01  6.8515062305651597e-01  6.9437248266679563e-01  7.0253524907034193e-01  7.0970471965976600e-01  7.1593825570092917e-01  7.2128558690039390e-01  7.2578975378528443e-01  7.2948812835526067e-01  7.3241346750298253e-01  7.3459496479099728e-01  7.3605927460211040e-01  7.3683148880112914e-01  7.3693605025170006e-01  7.3639759024267415e-01  7.3524167853505751e-01  7.3349547579819685e-01  7.3118827911683937e-01  7.2835195244811290e-01  7.2502123575803989e-01  7.2123392933747099e-01  7.1703095360814395e-01  7.1245628951877438e-01  7.0755681013118510e-01  7.0238201973590086e-01  6.9698372217091131e-01  6.9141564419244739e-01  6.8573304199159113e-01  6.7999231858962916e-01  6.7425067641579406e-01  6.6856582273014986e-01  6.6299573595410188e-01  6.5759848909085883e-01  6.5243211334316675e-01  6.4755447217866768e-01  6.4302310506689320e-01  6.3889499256054227e-01  6.3522619180139905e-01  6.3207129502366055e-01  6.2948267378715572e-01  6.2750948838916110e-01  6.2619646427757203e-01  6.2558246361577041e-01  6.2569890799830252e-01  6.2656813471074546e-01  6.2820179063917991e-01  6.3059938186549991e-01  6.3374710059582962e-01  6.3761704280682396e-01  6.4216690963391565e-01  6.4734025436000919e-01  6.5306729767716487e-01  6.5926629069126086e-01  6.6584536264472849e-01  6.7270475333261137e-01  6.7973930282835782e-01  6.8684105630268311e-01  6.9390184062135252e-01  7.0081568145223705e-01  7.0748095257288213e-01  7.1380217950554647e-01  7.1969145340677376e-01  7.2506944405709650e-01  7.2986602884543428e-01  7.3402057443097213e-01  7.3748191816205233e-01  7.4020811036859668e-01  7.4216609715732251e-01  7.4333235870590408e-01  7.4370056537790585e-01  -1.2002005410625009e-01  -1.1762632133135259e-01  -1.1055838588602150e-01  -9.8937816993622613e-02  -8.2917619923905811e-02  -6.2702718376973041e-02  -3.8559944161047195e-02  -1.0821891525786465e-02  2.0113590214917886e-02  5.3788241464341899e-02  8.9692868939946491e-02  1.2728136282450070e-01  1.6598851251838373e-01  2.0525022874360632e-01  2.4452431897994195e-01  2.8330981402792144e-01  3.2116304305951909e-01  3.5770914973338214e-01  3.9264841028665898e-01  4.2575740531064010e-01  4.5688567656061430e-01  4.8594888436966227e-01  5.1291964580816163e-01  5.3781720522176757e-01  5.6069692390056913e-01  5.8164033915011060e-01  6.0074629124868084e-01  6.1812338909788533e-01  6.3388390306494002e-01  6.4813904289789792e-01  6.6099549602348950e-01  6.7255305818184319e-01  6.8290317382909427e-01  6.9212820836586042e-01  7.0030129013619413e-01  7.0748658147009580e-01  7.1373986088698471e-01  7.1910932052200360e-01  7.2363650255975875e-01  7.2735731536835235e-01  7.3030308397722909e-01  7.3250160064906300e-01  7.3397814980889353e-01  7.3475648783375436e-01  7.3485976253347551e-01  7.3431135995672303e-01  7.3313566784816875e-01  7.3135874609364104e-01  7.2900889525624801e-01  7.2611711524645906e-01  7.2271744765183099e-01  7.1884719755666027e-01  7.1454703395596209e-01  7.0986097209069832e-01  7.0483624598821037e-01  6.9952308477388514e-01  6.9397441134689342e-01  6.8824548608845171e-01  6.8239352066744607e-01  6.7647728706960364e-01  6.7055674423146006e-01  6.6469269892695115e-01  6.5894650901890406e-01  6.5337982644462134e-01  6.4805436534636340e-01  6.4303166890854813e-01  6.3837283826388092e-01  6.3413817987529886e-01  6.3038672554958231e-01  6.2717558281595054e-01  6.2455908340557142e-01  6.2258771390570422e-01  6.2130683445583135e-01  6.2075521691148006e-01  6.2096346079909215e-01  6.2195237065252296e-01  6.2373139874508965e-01  6.2629726974508881e-01  6.2963290595115429e-01  6.3370676204858312e-01  6.3847265666965602e-01  6.4387015587618357e-01  6.4982552393436011e-01  6.5625321353308497e-01  6.6305782568443961e-01  6.7013643370528364e-01  6.7738113995774651e-01  6.8468172114103854e-01  6.9192821888045541e-01  6.9901334635231416e-01  7.0583460633401107e-01  7.1229604788627177e-01  7.1830962389537201e-01  7.2379614620226185e-01  7.2868586638090482e-01  7.3291873825770670e-01  7.3644444893829186e-01  7.3922236075065140e-01  7.4122165136418883e-01  7.4242230604208137e-01  7.4281811225825756e-01  -1.1261242653700934e-01  -1.1028484566635142e-01  -1.0335613158035863e-01  -9.1930005525140468e-02  -7.6159216771050323e-02  -5.6251404013765251e-02  -3.2474862567931265e-02  -5.1614946306954438e-03  2.5293860035484440e-02  5.8438276689368053e-02  9.3770116576386175e-02  1.3075277600864507e-01  1.6883204966548382e-01  2.0745574140186962e-01  2.4609373495461567e-01  2.8425660961285354e-01  3.2151108597687372e-01  3.5749106359958671e-01  3.9190364996608923e-01  4.2453023727855460e-01  4.5522323442502505e-01  4.8389942716057305e-01  5.1053109704899768e-01  5.3513600394218752e-01  5.5776718102300260e-01  5.7850326682347453e-01  5.9743985851633163e-01  6.1468215275800797e-01  6.3033896494118569e-01  6.4451809124263781e-01  6.5732289714988923e-01  6.6884997301972182e-01  6.7918768189181622e-01  6.8841542807298595e-01  6.9660348939711980e-01  7.0381327597396881e-01  7.1009789987679928e-01  7.1550296123100199e-01  7.2006747524265180e-01  7.2382488123451338e-01  7.2680408855427514e-01  7.2903052534917268e-01  7.3052716485755853e-01  7.3131551031536357e-01  7.3141652411829217e-01  7.3085148985456538e-01  7.2964279759219663e-01  7.2781464375825877e-01  7.2539363748926333e-01  7.2240930586096619e-01  7.1889449128873872e-01  7.1488563592297227e-01  7.1042295023643753e-01  7.0555046625631745e-01  7.0031597990658634e-01  6.9477089139124060e-01  6.8896995699606811e-01  6.8297096952408998e-01  6.7683438716108302e-01  6.7062293128136419e-01  6.6440117207521088e-01  6.5823511666860612e-01  6.5219180769276974e-01  6.4633893149469790e-01  6.4074442518854091e-01  6.3547606169435866e-01  6.3060098319833735e-01  6.2618514759446309e-01  6.2229265084157126e-01  6.1898489190947503e-01  6.1631955671657301e-01  6.1434941313183233e-01  6.1312092989010314e-01  6.1267275649214625e-01  6.1303412642213084e-01  6.1422326935703453e-01  6.1624593627086510e-01  6.1909415143577839e-01  6.2274530491356772e-01  6.2716168691396679e-01  6.3229054148564967e-01  6.3806468308795328e-01  6.4440367883816041e-01  6.5121555595228453e-01  6.5839895297519069e-01  6.6584559956304235e-01  6.7344298670754710e-01  6.8107707979472176e-01  6.8863493139878940e-01  6.9600706804325529e-01  7.0308955262074191e-01  7.0978565808230687e-01  7.1600712442827807e-01  7.2167500644288118e-01  7.2672015170073012e-01  7.3108337688113656e-01  7.3471543819097740e-01  7.3757692481117942e-01  7.3963824401669898e-01  7.4087985944704648e-01  7.4129258204938175e-01  -1.0222012215440564e-01  -9.9950593744958072e-02  -9.3179762050932285e-02  -8.2001280277667954e-02  -6.6564649431178874e-02  -4.7076955488471024e-02  -2.3805751889099447e-02  2.9194858420880927e-03  3.2708790344251490e-02  6.5116911495960841e-02  9.9652727909745858e-02  1.3579272861233066e-01  1.7299781640043260e-01  2.1073212171662029e-01  2.4848213620778176e-01  2.8577437203159645e-01  3.2218995229554576e-01  3.5737498996293948e-01  3.9104620951355040e-01  4.2299187738890037e-01  4.5306861908367230e-01  4.8119504050068879e-01  5.0734321811874117e-01  5.3152909945005145e-01  5.5380271112127977e-01  5.7423886296102555e-01  5.9292881207916437e-01  6.0997314611491571e-01  6.2547597898635854e-01  6.3954043188555554e-01  6.5226529432703617e-01  6.6374271740187507e-01  6.7405677506969153e-01  6.8328273084880087e-01  6.9148685962787693e-01  6.9872669228190332e-01  7.0505157074100400e-01  7.1050342087460971e-01  7.1511766872834881e-01  7.1892424165038959e-01  7.2194860943272754e-01  7.2421283176584406e-01  7.2573658718038081e-01  7.2653816541125615e-01  7.2663540999365916e-01  7.2604660114676156e-01  7.2479127091455320e-01  7.2289094344238791e-01  7.2036979352816488e-01  7.1725521656635383e-01  7.1357830305803838e-01  7.0937421130629486e-01  7.0468243299368949e-01  6.9954694817903074e-01  6.9401626884948053e-01  6.8814337336645315e-01  6.8198553764507486e-01  6.7560407227681529e-01  6.6906397753174174e-01  6.6243352973384972e-01  6.5578381242906225e-01  6.4918820375336495e-01  6.4272182738802919e-01  6.3646096869319302e-01  6.3048245061219543e-01  6.2486295663991587e-01  6.1967828172318351e-01  6.1500248774046529e-01  6.1090693951175146e-01  6.0745920122393060e-01  6.0472178239517516e-01  6.0275073708236948e-01  6.0159413921375293e-01  6.0129047911939548e-01  6.0186704917280931e-01  6.0333840701198072e-01  6.0570501990584180e-01  6.0895220051020349e-01  6.1304944025602315e-01  6.1795023083933887e-01  6.2359243714875334e-01  6.2989924852011780e-01  6.3678069299019235e-01  6.4413565584631982e-01  6.5185430427689828e-01  6.5982078901338892e-01  6.6791607513114104e-01  6.7602074961268510e-01  6.8401766293524902e-01  6.9179428405996979e-01  6.9924467958122438e-01  7.0627106443901966e-01  7.1278490940234573e-01  7.1870762595656390e-01  7.2397087980213060e-01  7.2851660869815760e-01  7.3229683844372928e-01  7.3527340022992282e-01  7.3741764148103373e-01  7.3871014995219886e-01  7.3914029056032227e-01  -8.8700397975004175e-02  -8.6495919672004776e-02  -7.9911998674064566e-02  -6.9037645428137118e-02  -5.4019666436239559e-02  -3.5063473725831268e-02  -1.2434403416863310e-02  1.3542128769824406e-02  4.2482958814280630e-02  7.3952894315043746e-02  1.0747424306951797e-01  1.4254001248360978e-01  1.7863005693087211e-01  2.1522893700316706e-01  2.5184392147616341e-01  2.8802148631494673e-01  3.2336086224002747e-01  3.5752360441625036e-01  3.9023870616362905e-01  4.2130333621577082e-01  4.5057974385134814e-01  4.7798918436404014e-01  5.0350385075629878e-01  5.2713777687615848e-01  5.4893754635830860e-01  5.6897345123118037e-01  5.8733153847542485e-01  6.0410679405885670e-01  6.1939755994097823e-01  6.3330116635962153e-01  6.4591068739628399e-01  6.5731268594785730e-01  6.6758579684667940e-01  6.7679999632040178e-01  6.8501641589121331e-01  6.9228757437480182e-01  6.9865791952609946e-01  7.0416458896634404e-01  7.0883831706871181e-01  7.1270442982057869e-01  7.1578388302441409e-01  7.1809431045734906e-01  7.1965105780307426e-01  7.2046818538114155e-01  7.2055942805133899e-01  7.1993910432603103e-01  7.1862296888391131e-01  7.1662900359098247e-01  7.1397814208648502e-01  7.1069492230273545e-01  7.0680806029399823e-01  7.0235093777994972e-01  6.9736199516100572e-01  6.9188502167308286e-01  6.8596933497004731e-01  6.7966984379855866e-01  6.7304698948846475e-01  6.6616656452802014e-01  6.5909940922511290e-01  6.5192098999353432e-01  6.4471086473681805e-01  6.3755204175500158e-01  6.3053023830685817e-01  6.2373304334975621e-01  6.1724898624486091e-01  6.1116650986151044e-01  6.0557284335640793e-01  6.0055276800350288e-01  5.9618726998616989e-01  5.9255207812835697e-01  5.8971609290628779e-01  5.8773972594995061e-01  5.8667318604938756e-01  5.8655476698917675e-01  5.8740921207612973e-01  5.8924624710029139e-01  5.9205938451491114e-01  5.9582510390605170e-01  6.0050250519864090e-01  6.0603351065563005e-01  6.1234366035703480e-01  6.1934350602516719e-01  6.2693056384641077e-01  6.3499174338059339e-01  6.4340613203158281e-01  6.5204798753899873e-01  6.6078977780722103e-01  6.6950510946370778e-01  6.7807140310626257e-01  6.8637220167743640e-01  6.9429903490113998e-01  7.0175280275038587e-01  7.0864468015458926e-01  7.1489658001748346e-01  7.2044123959580864e-01  7.2522201487812477e-01  7.2919247760847061e-01  7.3231590750025066e-01  7.3456475151607925e-01  7.3592007186184616e-01  7.3637092578498675e-01  -7.1915104548691614e-02  -6.9787069803982346e-02  -6.3423934135691196e-02  -5.2912593588481896e-02  -3.8397918738638147e-02  -2.0083197034766558e-02  1.7695493759233558e-03  2.6840484592870154e-02  5.4755167947159851e-02  8.5090815521410262e-02  1.1738595532231352e-01  1.5115330541912472e-01  1.8589517572252559e-01  2.2112024305301858e-01  2.5636026884207641e-01  2.9118528101281926e-01  3.2521593546807476e-01  3.5813216098148282e-01  3.8967768562838739e-01  4.1966054054789276e-01  4.4795004932756560e-01  4.7447108392109721e-01  4.9919648574076947e-01  5.2213853182100023e-01  5.4334020924176085e-01  5.6286689067779005e-01  5.8079881926694521e-01  5.9722464030792122e-01  6.1223607678107894e-01  6.2592374115889160e-01  6.3837400604530647e-01  6.4966681544794724e-01  6.5987430005509240e-01  6.6906005705808280e-01  6.7727896218634820e-01  6.8457739441599463e-01  6.9099376927186440e-01  6.9655929281775775e-01  7.0129886414022780e-01  7.0523206870965727e-01  7.0837421809038115e-01  7.1073740288470511e-01  7.1233153544040029e-01  7.1316536668577191e-01  7.1324746747775747e-01  7.1258716909470099e-01  7.1119546006251488e-01  7.0908583751114196e-01  7.0627511091417594e-01  7.0278415461830601e-01  6.9863860331708827e-01  6.9386948189653019e-01  6.8851375823023875e-01  6.8261480488591508e-01  6.7622275366406392e-01  6.6939472572651049e-01  6.6219492002297375e-01  6.5469454392761683e-01  6.4697157246552361e-01  6.3911032610161800e-01  6.3120086148437637e-01  6.2333817435063676e-01  6.1562121849491291e-01  6.0815174879345357e-01  6.0103299939627053e-01  5.9436821027112219e-01  5.8825901657284829e-01  5.8280371647487406e-01  5.7809543510426431e-01  5.7422020616579184e-01  5.7125499968341131e-01  5.6926573453590001e-01  5.6830532788239707e-01  5.6841184899992880e-01  5.6960686037970631e-01  5.7189404129121735e-01  5.7525819521757360e-01  5.7966473961660414e-01  5.8505976227130874e-01  5.9137070242968248e-01  5.9850767822504181e-01  6.0636543766764794e-01  6.1482586356705926e-01  6.2376091876317397e-01  6.3303588267846733e-01  6.4251270811444228e-01  6.5205332123027726e-01  6.6152269828763233e-01  6.7079157823281943e-01  6.7973870683617543e-01  6.8825255109187622e-01  6.9623246679674056e-01  7.0358934309078824e-01  7.1024578175083952e-01  7.1613589397546151e-01  7.2120481222216104e-01  7.2540801892612827e-01  7.2871058715830939e-01  7.3108640977659678e-01  7.3251746509412741e-01  7.3299314242245184e-01  -5.1739884527105130e-02  -4.9701107864122233e-02  -4.3594567732489410e-02  -3.3506036095979193e-02  -1.9578739012912662e-02  -2.0133761256736857e-03  1.8932397626002830e-02  4.2945841860286459e-02  6.9663156669668130e-02  9.8676254580697426e-02  1.2954250651431973e-01  1.6179724138965185e-01  1.9496832099979758e-01  2.2859173137945391e-01  2.6222690825378381e-01  2.9547049578755769e-01  3.2796742717816435e-01  3.5941856800051109e-01  3.8958460077764651e-01  4.1828626414271391e-01  4.4540141766283570e-01  4.7085963851670698e-01  4.9463515695739524e-01  5.1673892010407219e-01  5.3721047118864940e-01  5.5611018193797601e-01  5.7351221305819144e-01  5.8949842636481753e-01  6.0415334621546735e-01  6.1756017293552479e-01  6.2979778601816228e-01  6.4093863561891296e-01  6.5104740147217866e-01  6.6018029313443705e-01  6.6838486956744503e-01  6.7570026580725129e-01  6.8215772720340750e-01  6.8778136572916315e-01  6.9258906707388179e-01  6.9659349096928413e-01  6.9980312005282264e-01  7.0222332424530098e-01  7.0385741789070544e-01  7.0470769558598834e-01  7.0477643956289115e-01  7.0406689656085975e-01  7.0258422529199693e-01  7.0033641685243797e-01  6.9733518985723364e-01  6.9359685982048980e-01  6.8914317859980878e-01  6.8400213488582684e-01  6.7820870114025622e-01  6.7180550655170557e-01  6.6484341005018743e-01  6.5738194282184137e-01  6.4948958673852408e-01  6.4124385426132802e-01  6.3273113715878082e-01  6.2404629603307460e-01  6.1529197008248604e-01  6.0657759628283414e-01  5.9801813842593898e-01  5.8973253813590698e-01  5.8184191095803994e-01  5.7446751992430756e-01  5.6772856611160916e-01  5.6173984068592864e-01  5.5660928645168883e-01  5.5243552016095387e-01  5.4930537109863853e-01  5.4729149779311248e-01  5.4645015344123127e-01  5.4681918107524607e-01  5.4841632977079802e-01  5.5123799044773802e-01  5.5525845067573021e-01  5.6042975917306237e-01  5.6668227017855866e-01  5.7392590510807695e-01  5.8205212559974129e-01  5.9093656216502832e-01  6.0044219193318715e-01  6.1042291400428783e-01  6.2072733798230939e-01  6.3120258508767824e-01  6.4169790415160788e-01  6.5206792623058873e-01  6.6217541835233285e-01  6.7189344387619043e-01  6.8110688806926067e-01  6.8971335687610191e-01  6.9762349965443637e-01  7.0476083959349722e-01  7.1106121704471514e-01  7.1647196093824794e-01  7.2095090268399820e-01  7.2446533691171489e-01  7.2699101630724883e-01  7.2851124807097778e-01  7.2901614655176450e-01  -2.8081742544482549e-02  -2.6145345202627603e-02  -2.0331448319890529e-02  -1.0724927047412436e-02  2.5328227619331699e-03  1.9244397611232551e-02  3.9157702734406899e-02  6.1968694780545279e-02  8.7326152837931062e-02  1.1483889633399542e-01  1.4408555797916975e-01  1.7462663800934980e-01  2.0601818333429509e-01  2.3782612803371425e-01  2.6964016485614822e-01  3.0108602715054472e-01  3.3183524387519098e-01  3.6161174563217435e-01  3.9019508010027210e-01  4.174