<?xml version="1.0"?>
<VTKFile type="UnstructuredGrid"  version="0.1"  >
<UnstructuredGrid>
<Piece  NumberOfPoints="10201" NumberOfCells="20000">
<Points>
<DataArray  type="Float64"  NumberOfComponents="3"  format="ascii">0 0 0  0.25 0 0  0.5 0 0  0.75 0 0  1 0 0  1.25 0 0  1.5 0 0  1.75 0 0  2 0 0  2.25 0 0  2.5 0 0  2.75 0 0  3 0 0  3.25 0 0  3.5 0 0  3.75 0 0  4 0 0  4.25 0 0  4.5 0 0  4.75 0 0  5 0 0  5.25 0 0  5.5 0 0  5.75 0 0  6 0 0  6.25 0 0  6.5 0 0  6.75 0 0  7 0 0  7.25 0 0  7.5 0 0  7.75 0 0  8 0 0  8.25 0 0  8.5 0 0  8.75 0 0  9 0 0  9.25 0 0  9.5 0 0  9.75 0 0  10 0 0  10.25 0 0  10.5 0 0  10.75 0 0  11 0 0  11.25 0 0  11.5 0 0  11.75 0 0  12 0 0  12.25 0 0  12.5 0 0  12.75 0 0  13 0 0  13.25 0 0  13.5 0 0  13.75 0 0  14 0 0  14.25 0 0  14.5 0 0  14.75 0 0  15 0 0  15.25 0 0  15.5 0 0  15.75 0 0  16 0 0  16.25 0 0  16.5 0 0  16.75 0 0  17 0 0  17.25 0 0  17.5 0 0  17.75 0 0  18 0 0  18.25 0 0  18.5 0 0  18.75 0 0  19 0 0  19.25 0 0  19.5 0 0  19.75 0 0  20 0 0  20.25 0 0  20.5 0 0  20.75 0 0  21 0 0  21.25 0 0  21.5 0 0  21.75 0 0  22 0 0  22.25 0 0  22.5 0 0  22.75 0 0  23 0 0  23.25 0 0  23.5 0 0  23.75 0 0  24 0 0  24.25 0 0  24.5 0 0  24.75 0 0  25 0 0  0 0.25 0  0.25 0.25 0  0.5 0.25 0  0.75 0.25 0  1 0.25 0  1.25 0.25 0  1.5 0.25 0  1.75 0.25 0  2 0.25 0  2.25 0.25 0  2.5 0.25 0  2.75 0.25 0  3 0.25 0  3.25 0.25 0  3.5 0.25 0  3.75 0.25 0  4 0.25 0  4.25 0.25 0  4.5 0.25 0  4.75 0.25 0  5 0.25 0  5.25 0.25 0  5.5 0.25 0  5.75 0.25 0  6 0.25 0  6.25 0.25 0  6.5 0.25 0  6.75 0.25 0  7 0.25 0  7.25 0.25 0  7.5 0.25 0  7.75 0.25 0  8 0.25 0  8.25 0.25 0  8.5 0.25 0  8.75 0.25 0  9 0.25 0  9.25 0.25 0  9.5 0.25 0  9.75 0.25 0  10 0.25 0  10.25 0.25 0  10.5 0.25 0  10.75 0.25 0  11 0.25 0  11.25 0.25 0  11.5 0.25 0  11.75 0.25 0  12 0.25 0  12.25 0.25 0  12.5 0.25 0  12.75 0.25 0  13 0.25 0  13.25 0.25 0  13.5 0.25 0  13.75 0.25 0  14 0.25 0  14.25 0.25 0  14.5 0.25 0  14.75 0.25 0  15 0.25 0  15.25 0.25 0  15.5 0.25 0  15.75 0.25 0  16 0.25 0  16.25 0.25 0  16.5 0.25 0  16.75 0.25 0  17 0.25 0  17.25 0.25 0  17.5 0.25 0  17.75 0.25 0  18 0.25 0  18.25 0.25 0  18.5 0.25 0  18.75 0.25 0  19 0.25 0  19.25 0.25 0  19.5 0.25 0  19.75 0.25 0  20 0.25 0  20.25 0.25 0  20.5 0.25 0  20.75 0.25 0  21 0.25 0  21.25 0.25 0  21.5 0.25 0  21.75 0.25 0  22 0.25 0  22.25 0.25 0  22.5 0.25 0  22.75 0.25 0  23 0.25 0  23.25 0.25 0  23.5 0.25 0  23.75 0.25 0  24 0.25 0  24.25 0.25 0  24.5 0.25 0  24.75 0.25 0  25 0.25 0  0 0.5 0  0.25 0.5 0  0.5 0.5 0  0.75 0.5 0  1 0.5 0  1.25 0.5 0  1.5 0.5 0  1.75 0.5 0  2 0.5 0  2.25 0.5 0  2.5 0.5 0  2.75 0.5 0  3 0.5 0  3.25 0.5 0  3.5 0.5 0  3.75 0.5 0  4 0.5 0  4.25 0.5 0  4.5 0.5 0  4.75 0.5 0  5 0.5 0  5.25 0.5 0  5.5 0.5 0  5.75 0.5 0  6 0.5 0  6.25 0.5 0  6.5 0.5 0  6.75 0.5 0  7 0.5 0  7.25 0.5 0  7.5 0.5 0  7.75 0.5 0  8 0.5 0  8.25 0.5 0  8.5 0.5 0  8.75 0.5 0  9 0.5 0  9.25 0.5 0  9.5 0.5 0  9.75 0.5 0  10 0.5 0  10.25 0.5 0  10.5 0.5 0  10.75 0.5 0  11 0.5 0  11.25 0.5 0  11.5 0.5 0  11.75 0.5 0  12 0.5 0  12.25 0.5 0  12.5 0.5 0  12.75 0.5 0  13 0.5 0  13.25 0.5 0  13.5 0.5 0  13.75 0.5 0  14 0.5 0  14.25 0.5 0  14.5 0.5 0  14.75 0.5 0  15 0.5 0  15.25 0.5 0  15.5 0.5 0  15.75 0.5 0  16 0.5 0  16.25 0.5 0  16.5 0.5 0  16.75 0.5 0  17 0.5 0  17.25 0.5 0  17.5 0.5 0  17.75 0.5 0  18 0.5 0  18.25 0.5 0  18.5 0.5 0  18.75 0.5 0  19 0.5 0  19.25 0.5 0  19.5 0.5 0  19.75 0.5 0  20 0.5 0  20.25 0.5 0  20.5 0.5 0  20.75 0.5 0  21 0.5 0  21.25 0.5 0  21.5 0.5 0  21.75 0.5 0  22 0.5 0  22.25 0.5 0  22.5 0.5 0  22.75 0.5 0  23 0.5 0  23.25 0.5 0  23.5 0.5 0  23.75 0.5 0  24 0.5 0  24.25 0.5 0  24.5 0.5 0  24.75 0.5 0  25 0.5 0  0 0.75 0  0.25 0.75 0  0.5 0.75 0  0.75 0.75 0  1 0.75 0  1.25 0.75 0  1.5 0.75 0  1.75 0.75 0  2 0.75 0  2.25 0.75 0  2.5 0.75 0  2.75 0.75 0  3 0.75 0  3.25 0.75 0  3.5 0.75 0  3.75 0.75 0  4 0.75 0  4.25 0.75 0  4.5 0.75 0  4.75 0.75 0  5 0.75 0  5.25 0.75 0  5.5 0.75 0  5.75 0.75 0  6 0.75 0  6.25 0.75 0  6.5 0.75 0  6.75 0.75 0  7 0.75 0  7.25 0.75 0  7.5 0.75 0  7.75 0.75 0  8 0.75 0  8.25 0.75 0  8.5 0.75 0  8.75 0.75 0  9 0.75 0  9.25 0.75 0  9.5 0.75 0  9.75 0.75 0  10 0.75 0  10.25 0.75 0  10.5 0.75 0  10.75 0.75 0  11 0.75 0  11.25 0.75 0  11.5 0.75 0  11.75 0.75 0  12 0.75 0  12.25 0.75 0  12.5 0.75 0  12.75 0.75 0  13 0.75 0  13.25 0.75 0  13.5 0.75 0  13.75 0.75 0  14 0.75 0  14.25 0.75 0  14.5 0.75 0  14.75 0.75 0  15 0.75 0  15.25 0.75 0  15.5 0.75 0  15.75 0.75 0  16 0.75 0  16.25 0.75 0  16.5 0.75 0  16.75 0.75 0  17 0.75 0  17.25 0.75 0  17.5 0.75 0  17.75 0.75 0  18 0.75 0  18.25 0.75 0  18.5 0.75 0  18.75 0.75 0  19 0.75 0  19.25 0.75 0  19.5 0.75 0  19.75 0.75 0  20 0.75 0  20.25 0.75 0  20.5 0.75 0  20.75 0.75 0  21 0.75 0  21.25 0.75 0  21.5 0.75 0  21.75 0.75 0  22 0.75 0  22.25 0.75 0  22.5 0.75 0  22.75 0.75 0  23 0.75 0  23.25 0.75 0  23.5 0.75 0  23.75 0.75 0  24 0.75 0  24.25 0.75 0  24.5 0.75 0  24.75 0.75 0  25 0.75 0  0 1 0  0.25 1 0  0.5 1 0  0.75 1 0  1 1 0  1.25 1 0  1.5 1 0  1.75 1 0  2 1 0  2.25 1 0  2.5 1 0  2.75 1 0  3 1 0  3.25 1 0  3.5 1 0  3.75 1 0  4 1 0  4.25 1 0  4.5 1 0  4.75 1 0  5 1 0  5.25 1 0  5.5 1 0  5.75 1 0  6 1 0  6.25 1 0  6.5 1 0  6.75 1 0  7 1 0  7.25 1 0  7.5 1 0  7.75 1 0  8 1 0  8.25 1 0  8.5 1 0  8.75 1 0  9 1 0  9.25 1 0  9.5 1 0  9.75 1 0  10 1 0  10.25 1 0  10.5 1 0  10.75 1 0  11 1 0  11.25 1 0  11.5 1 0  11.75 1 0  12 1 0  12.25 1 0  12.5 1 0  12.75 1 0  13 1 0  13.25 1 0  13.5 1 0  13.75 1 0  14 1 0  14.25 1 0  14.5 1 0  14.75 1 0  15 1 0  15.25 1 0  15.5 1 0  15.75 1 0  16 1 0  16.25 1 0  16.5 1 0  16.75 1 0  17 1 0  17.25 1 0  17.5 1 0  17.75 1 0  18 1 0  18.25 1 0  18.5 1 0  18.75 1 0  19 1 0  19.25 1 0  19.5 1 0  19.75 1 0  20 1 0  20.25 1 0  20.5 1 0  20.75 1 0  21 1 0  21.25 1 0  21.5 1 0  21.75 1 0  22 1 0  22.25 1 0  22.5 1 0  22.75 1 0  23 1 0  23.25 1 0  23.5 1 0  23.75 1 0  24 1 0  24.25 1 0  24.5 1 0  24.75 1 0  25 1 0  0 1.25 0  0.25 1.25 0  0.5 1.25 0  0.75 1.25 0  1 1.25 0  1.25 1.25 0  1.5 1.25 0  1.75 1.25 0  2 1.25 0  2.25 1.25 0  2.5 1.25 0  2.75 1.25 0  3 1.25 0  3.25 1.25 0  3.5 1.25 0  3.75 1.25 0  4 1.25 0  4.25 1.25 0  4.5 1.25 0  4.75 1.25 0  5 1.25 0  5.25 1.25 0  5.5 1.25 0  5.75 1.25 0  6 1.25 0  6.25 1.25 0  6.5 1.25 0  6.75 1.25 0  7 1.25 0  7.25 1.25 0  7.5 1.25 0  7.75 1.25 0  8 1.25 0  8.25 1.25 0  8.5 1.25 0  8.75 1.25 0  9 1.25 0  9.25 1.25 0  9.5 1.25 0  9.75 1.25 0  10 1.25 0  10.25 1.25 0  10.5 1.25 0  10.75 1.25 0  11 1.25 0  11.25 1.25 0  11.5 1.25 0  11.75 1.25 0  12 1.25 0  12.25 1.25 0  12.5 1.25 0  12.75 1.25 0  13 1.25 0  13.25 1.25 0  13.5 1.25 0  13.75 1.25 0  14 1.25 0  14.25 1.25 0  14.5 1.25 0  14.75 1.25 0  15 1.25 0  15.25 1.25 0  15.5 1.25 0  15.75 1.25 0  16 1.25 0  16.25 1.25 0  16.5 1.25 0  16.75 1.25 0  17 1.25 0  17.25 1.25 0  17.5 1.25 0  17.75 1.25 0  18 1.25 0  18.25 1.25 0  18.5 1.25 0  18.75 1.25 0  19 1.25 0  19.25 1.25 0  19.5 1.25 0  19.75 1.25 0  20 1.25 0  20.25 1.25 0  20.5 1.25 0  20.75 1.25 0  21 1.25 0  21.25 1.25 0  21.5 1.25 0  21.75 1.25 0  22 1.25 0  22.25 1.25 0  22.5 1.25 0  22.75 1.25 0  23 1.25 0  23.25 1.25 0  23.5 1.25 0  23.75 1.25 0  24 1.25 0  24.25 1.25 0  24.5 1.25 0  24.75 1.25 0  25 1.25 0  0 1.5 0  0.25 1.5 0  0.5 1.5 0  0.75 1.5 0  1 1.5 0  1.25 1.5 0  1.5 1.5 0  1.75 1.5 0  2 1.5 0  2.25 1.5 0  2.5 1.5 0  2.75 1.5 0  3 1.5 0  3.25 1.5 0  3.5 1.5 0  3.75 1.5 0  4 1.5 0  4.25 1.5 0  4.5 1.5 0  4.75 1.5 0  5 1.5 0  5.25 1.5 0  5.5 1.5 0  5.75 1.5 0  6 1.5 0  6.25 1.5 0  6.5 1.5 0  6.75 1.5 0  7 1.5 0  7.25 1.5 0  7.5 1.5 0  7.75 1.5 0  8 1.5 0  8.25 1.5 0  8.5 1.5 0  8.75 1.5 0  9 1.5 0  9.25 1.5 0  9.5 1.5 0  9.75 1.5 0  10 1.5 0  10.25 1.5 0  10.5 1.5 0  10.75 1.5 0  11 1.5 0  11.25 1.5 0  11.5 1.5 0  11.75 1.5 0  12 1.5 0  12.25 1.5 0  12.5 1.5 0  12.75 1.5 0  13 1.5 0  13.25 1.5 0  13.5 1.5 0  13.75 1.5 0  14 1.5 0  14.25 1.5 0  14.5 1.5 0  14.75 1.5 0  15 1.5 0  15.25 1.5 0  15.5 1.5 0  15.75 1.5 0  16 1.5 0  16.25 1.5 0  16.5 1.5 0  16.75 1.5 0  17 1.5 0  17.25 1.5 0  17.5 1.5 0  17.75 1.5 0  18 1.5 0  18.25 1.5 0  18.5 1.5 0  18.75 1.5 0  19 1.5 0  19.25 1.5 0  19.5 1.5 0  19.75 1.5 0  20 1.5 0  20.25 1.5 0  20.5 1.5 0  20.75 1.5 0  21 1.5 0  21.25 1.5 0  21.5 1.5 0  21.75 1.5 0  22 1.5 0  22.25 1.5 0  22.5 1.5 0  22.75 1.5 0  23 1.5 0  23.25 1.5 0  23.5 1.5 0  23.75 1.5 0  24 1.5 0  24.25 1.5 0  24.5 1.5 0  24.75 1.5 0  25 1.5 0  0 1.75 0  0.25 1.75 0  0.5 1.75 0  0.75 1.75 0  1 1.75 0  1.25 1.75 0  1.5 1.75 0  1.75 1.75 0  2 1.75 0  2.25 1.75 0  2.5 1.75 0  2.75 1.75 0  3 1.75 0  3.25 1.75 0  3.5 1.75 0  3.75 1.75 0  4 1.75 0  4.25 1.75 0  4.5 1.75 0  4.75 1.75 0  5 1.75 0  5.25 1.75 0  5.5 1.75 0  5.75 1.75 0  6 1.75 0  6.25 1.75 0  6.5 1.75 0  6.75 1.75 0  7 1.75 0  7.25 1.75 0  7.5 1.75 0  7.75 1.75 0  8 1.75 0  8.25 1.75 0  8.5 1.75 0  8.75 1.75 0  9 1.75 0  9.25 1.75 0  9.5 1.75 0  9.75 1.75 0  10 1.75 0  10.25 1.75 0  10.5 1.75 0  10.75 1.75 0  11 1.75 0  11.25 1.75 0  11.5 1.75 0  11.75 1.75 0  12 1.75 0  12.25 1.75 0  12.5 1.75 0  12.75 1.75 0  13 1.75 0  13.25 1.75 0  13.5 1.75 0  13.75 1.75 0  14 1.75 0  14.25 1.75 0  14.5 1.75 0  14.75 1.75 0  15 1.75 0  15.25 1.75 0  15.5 1.75 0  15.75 1.75 0  16 1.75 0  16.25 1.75 0  16.5 1.75 0  16.75 1.75 0  17 1.75 0  17.25 1.75 0  17.5 1.75 0  17.75 1.75 0  18 1.75 0  18.25 1.75 0  18.5 1.75 0  18.75 1.75 0  19 1.75 0  19.25 1.75 0  19.5 1.75 0  19.75 1.75 0  20 1.75 0  20.25 1.75 0  20.5 1.75 0  20.75 1.75 0  21 1.75 0  21.25 1.75 0  21.5 1.75 0  21.75 1.75 0  22 1.75 0  22.25 1.75 0  22.5 1.75 0  22.75 1.75 0  23 1.75 0  23.25 1.75 0  23.5 1.75 0  23.75 1.75 0  24 1.75 0  24.25 1.75 0  24.5 1.75 0  24.75 1.75 0  25 1.75 0  0 2 0  0.25 2 0  0.5 2 0  0.75 2 0  1 2 0  1.25 2 0  1.5 2 0  1.75 2 0  2 2 0  2.25 2 0  2.5 2 0  2.75 2 0  3 2 0  3.25 2 0  3.5 2 0  3.75 2 0  4 2 0  4.25 2 0  4.5 2 0  4.75 2 0  5 2 0  5.25 2 0  5.5 2 0  5.75 2 0  6 2 0  6.25 2 0  6.5 2 0  6.75 2 0  7 2 0  7.25 2 0  7.5 2 0  7.75 2 0  8 2 0  8.25 2 0  8.5 2 0  8.75 2 0  9 2 0  9.25 2 0  9.5 2 0  9.75 2 0  10 2 0  10.25 2 0  10.5 2 0  10.75 2 0  11 2 0  11.25 2 0 
[...]
<PointData  Scalars="f_26"> 
<DataArray  type="Float64"  Name="f_26"  format="ascii">9.8584979918917914e-01  9.8580794678738803e-01  9.8571197131587074e-01  9.8555347310646813e-01  9.8532442050024238e-01  9.8501437333224362e-01  9.8460923621741947e-01  9.8409013835909931e-01  9.8343204413528151e-01  9.8260189055536873e-01  9.8155605279783620e-01  9.8023688675667664e-01  9.7856801253456294e-01  9.7644788648083813e-01  9.7374105815318035e-01  9.7026632064461360e-01  9.6578074453352092e-01  9.5995836363377074e-01  9.5236212239773987e-01  9.4240774712056041e-01  9.2931875413433951e-01  9.1207337657268317e-01  8.8934762280616719e-01  8.5946516462818712e-01  8.2037552663227642e-01  7.6969728549583150e-01  7.0487923824294507e-01  6.2353861312947334e-01  5.2400977259659209e-01  4.0605451349753258e-01  2.7154549857035393e-01  1.2480280007304431e-01  -2.7727470907693126e-02  -1.7851832388988548e-01  -3.2041225067936790e-01  -4.4791543621002222e-01  -5.5787814271748337e-01  -6.4945824930681417e-01  -7.2358740605729843e-01  -7.8226707451197974e-01  -8.2794285649441246e-01  -8.6306642494663166e-01  -8.8984804362158265e-01  -9.1015328717248767e-01  -9.2548961588636813e-01  -9.3703948007533289e-01  -9.4571163488401477e-01  -9.5219475783541552e-01  -9.5700579099263605e-01  -9.6053030164207498e-01  -9.6305467423873758e-01  -9.6479105837165213e-01  -9.6589635058327594e-01  -9.6648647387899123e-01  -9.6664705427805964e-01  -9.6644138874678975e-01  -9.6591640346685470e-01  -9.6510713449012586e-01  -9.6404012814404461e-01  -9.6273605328973311e-01  -9.6121173673016480e-01  -9.5948177159521209e-01  -9.5755980195381385e-01  -9.5545955171705754e-01  -9.5319563951944530e-01  -9.5078420191627766e-01  -9.4824333375797842e-01  -9.4559334628661151e-01  -9.4285683989377722e-01  -9.4005858921028829e-01  -9.3722524281246022e-01  -9.3438484766328567e-01  -9.3156621850793064e-01  -9.2879818356558685e-01  -9.2610874853287040e-01  -9.2352422958788050e-01  -9.2106841133082951e-01  -9.1876178633125427e-01  -9.1662092862449196e-01  -9.1465804422285035e-01  -9.1288072827022249e-01  -9.1129194224464816e-01  -9.0989020735472614e-01  -9.0866999385283376e-01  -9.0762227211029545e-01  -9.0673518127914610e-01  -9.0599476596225359e-01  -9.0538573068524941e-01  -9.0489216571289488e-01  -9.0449820505614453e-01  -9.0418858729892115e-01  -9.0394910099397674e-01  -9.0376690780551205e-01  -9.0363074757569772e-01  -9.0353103989557670e-01  -9.0345990770737505e-01  -9.0341116504326757e-01  -9.0338035298186170e-01  -9.0336505680699497e-01  -9.0336635577912028e-01  -9.0339505763819705e-01  9.8579383885361249e-01  9.8576073291667632e-01  9.8566663091818651e-01  9.8550828814229785e-01  9.8527880589535943e-01  9.8496799383901323e-01  9.8456178773398706e-01  9.8404127758046478e-01  9.8338135157644335e-01  9.8254883816577732e-01  9.8149996694289510e-01  9.8017690191365425e-01  9.7850301201521606e-01  9.7637642668079383e-01  9.7366127328577645e-01  9.7017580654972124e-01  9.6567642432278511e-01  9.5983634690130892e-01  9.5221758704998705e-01  9.4223490354619388e-01  9.2911100085357379e-01  9.1182382643469351e-01  8.8905025671754967e-01  8.5911690767231752e-01  8.1997942596779982e-01  7.6926650990098144e-01  7.0444063191042494e-01  6.2313314833737798e-01  5.2368640621928675e-01  4.0585557440853914e-01  2.7148721753582328e-01  1.2486155088004051e-01  -2.7611463013393355e-02  -1.7841795009451780e-01  -3.2038396459971707e-01  -4.4798096940568483e-01  -5.5802546389221686e-01  -6.4965587857230078e-01  -7.2380066607977844e-01  -7.8246864508829617e-01  -8.2811630023508875e-01  -8.6320502302285984e-01  -8.8995179228649579e-01  -9.1022591181635193e-01  -9.2553636178898469e-01  -9.3706576184670154e-01  -9.4572235114171099e-01  -9.5219403357178845e-01  -9.5699695762465975e-01  -9.6051598910832814e-01  -9.6303694213286206e-01  -9.6477152846546044e-01  -9.6587632414854263e-01  -9.6646702856051492e-01  -9.6662912073462071e-01  -9.6642580947470058e-01  -9.6590397675078299e-01  -9.6509864619358510e-01  -9.6403637353925620e-01  -9.6273785057359629e-01  -9.6121993339007672e-01  -9.5949724441969253e-01  -9.5758345124084843e-01  -9.5549229011554404e-01  -9.5323837593643868e-01  -9.5083782101995140e-01  -9.4830867178313383e-01  -9.4567116407996477e-01  -9.4294779438790333e-01  -9.4016320475088921e-01  -9.3734388394441048e-01  -9.3451769506979232e-01  -9.3171324976473568e-01  -9.2895916020177927e-01  -9.2628321058171781e-01  -9.2371149838384292e-01  -9.2126760079859804e-01  -9.1897182246815179e-01  -9.1684057635371285e-01  -9.1488594034435766e-01  -9.1311541890113446e-01  -9.1153192294803898e-01  -9.1013396411233916e-01  -9.0891604313207752e-01  -9.0786919848266179e-01  -9.0698167132967644e-01  -9.0623963754804859e-01  -9.0562795691736941e-01  -9.0513089331827878e-01  -9.0473276699956462e-01  -9.0441850968945914e-01  -9.0417410434174161e-01  -9.0398690257829650e-01  -9.0384582357224019e-01  -9.0374144767924136e-01  -9.0366602636789450e-01  -9.0361343659804894e-01  -9.0357910886452364e-01  -9.0355992523982209e-01  -9.0355384397454486e-01  -9.0355757363679978e-01  9.8565780280881665e-01  9.8562674356471480e-01  9.8553358334802799e-01  9.8537509151564417e-01  9.8514467212957701e-01  9.8483226419214032e-01  9.8442380339500712e-01  9.8390030034757525e-01  9.8323650562265519e-01  9.8239905534669936e-01  9.8134392607494214e-01  9.8001295576431624e-01  9.7832909682232416e-01  9.7618994934988534e-01  9.7345897193575437e-01  9.6995358169840695e-01  9.6542914200540542e-01  9.5955762336621253e-01  9.5189958028135258e-01  9.4186816351158975e-01  9.2868447180895330e-01  9.1132515157221128e-01  8.8846659885678392e-01  8.5843653872390768e-01  8.1919428517608817e-01  7.6837567962793896e-01  7.0345412887162218e-01  6.2207462377431522e-01  5.2259270717971240e-01  4.0477150070876899e-01  2.7045596571603986e-01  1.2391461622065082e-01  -2.8459467270352277e-02  -1.7916663549981549e-01  -3.2103923736447459e-01  -4.4854775950018172e-01  -5.5850520379387114e-01  -6.5004834007370949e-01  -7.2410712338554151e-01  -7.8269383781504176e-01  -8.2826851594459661e-01  -8.6329492017130194e-01  -8.8999087057773418e-01  -9.1022524074045275e-01  -9.2550579068939354e-01  -9.3701358165883353e-01  -9.4565527700537189e-01  -9.5211737143252362e-01  -9.5691485067259452e-01  -9.6043167842051869e-01  -9.6295300665023131e-01  -9.6469008978386384e-01  -9.6579921327688445e-01  -9.6639591752555454e-01  -9.6656562404556245e-01  -9.6637156065306662e-01  -9.6586068441246642e-01  -9.6506813312826667e-01  -9.6402060117738908e-01  -9.6273893031310243e-01  -9.6124012553963067e-01  -9.5953894502825898e-01  -9.5764916683129631e-01  -9.5558460032262216e-01  -9.5335988425858731e-01  -9.5099109431384377e-01  -9.4849616972994177e-01  -9.4589516058650625e-01  -9.4321029368822484e-01  -9.4046585576036146e-01  -9.3768789709180345e-01  -9.3490376629190752e-01  -9.3214149650090472e-01  -9.2942907400347541e-01  -9.2679363032475881e-01  -9.2426060705378099e-01  -9.2185294748134416e-01  -9.1959036963114471e-01  -9.1748877089425507e-01  -9.1555980537046167e-01  -9.1381066194593608e-01  -9.1224405541972864e-01  -9.1085842631804104e-01  -9.0964832920065120e-01  -9.0860497590795097e-01  -9.0771689057756211e-01  -9.0697062810435003e-01  -9.0635150717526769e-01  -9.0584431269581134e-01  -9.0543392953955337e-01  -9.0510587904526663e-01  -9.0484674041900881e-01  -9.0464445008079530e-01  -9.0448848205886079e-01  -9.0436992089248902e-01  -9.0428144405191269e-01  -9.0421723128549991e-01  -9.0417280701181191e-01  -9.0414478078643667e-01  -9.0413034279668536e-01  -9.0412622305664481e-01  9.8543874491462147e-01  9.8540810855284022e-01  9.8531493866145248e-01  9.8515565083393153e-01  9.8492359195368295e-01  9.8460866628583166e-01  9.8419672489031940e-01  9.8366863182798459e-01  9.8299892651327381e-01  9.8215396329950855e-01  9.8108935479439263e-01  9.7974647542747073e-01  9.7804769102151723e-01  9.7588986220788443e-01  9.7313551910058271e-01  9.6960092002223719e-01  9.6503999599846779e-01  9.5912297381865741e-01  9.5140833451613438e-01  9.4130685135954872e-01  9.2803705101753908e-01  9.1057306441509489e-01  8.8758929654064322e-01  8.5741276692075596e-01  8.1800446205740796e-01  7.6700561839828663e-01  7.0190004708148668e-01  6.2034874859793732e-01  5.2072789521614049e-01  4.0282255540863215e-01  2.6849553101205675e-01  1.2202328428677231e-01  -3.0206342604284928e-02  -1.8071086829972044e-01  -3.2234648934349863e-01  -4.4960782501659008e-01  -5.5932759440793167e-01  -6.5065590558826558e-01  -7.2452985593544095e-01  -7.8296393053783642e-01  -8.2841694863688675e-01  -8.6334943592050695e-01  -8.8997504835590391e-01  -9.1015833679524272e-01  -9.2540305389791699e-01  -9.3688681104251648e-01  -9.4551346002195180e-01  -9.5196730421909759e-01  -9.5676168905093040e-01  -9.6027940042143989e-01  -9.6280478620630017e-01  -9.6454859076336685e-01  -9.6566681656918263e-01  -9.6627489400553335e-01  -9.6645826466583629e-01  -9.6628027268391603e-01  -9.6578806055008792e-01  -9.6501699810819153e-01  -9.6399403878248335e-01  -9.6274029229110458e-01  -9.6127302294484884e-01  -9.5960722186668890e-01  -9.5775685560898138e-01  -9.5573585916571124e-01  -9.5355891567904494e-01  -9.5124204641503052e-01  -9.4880302163986530e-01  -9.4626159510540964e-01  -9.4363956144255901e-01  -9.4096063643852046e-01  -9.3825016444721521e-01  -9.3553466437668586e-01  -9.3284123489031545e-01  -9.3019684947460990e-01  -9.2762758150581914e-01  -9.2515780698110872e-01  -9.2280943688883854e-01  -9.2060123132541460e-01  -9.1854824296923709e-01  -9.1666142854347532e-01  -9.1494745419877166e-01  -9.1340870560258414e-01  -9.1204349754578073e-01  -9.1084646277508430e-01  -9.0980908708201413e-01  -9.0892034860747783e-01  -9.0816741453375893e-01  -9.0753634796052929e-01  -9.0701278142217590e-01  -9.0658252043219978e-01  -9.0623204962672366e-01  -9.0594892442224950e-01  -9.0572204153104530e-01  -9.0554179121031908e-01  -9.0540010184303221e-01  -9.0529039235683140e-01  -9.0520744870921221e-01  -9.0514723535699448e-01  -9.0510664120165396e-01  -9.0508315777408477e-01  -9.0507458355201165e-01  9.8513777129793401e-01  9.8510706855726438e-01  9.8501325958268937e-01  9.8485252364376308e-01  9.8461806291965903e-01  9.8429965259253560e-01  9.8388298171073330e-01  9.8334869586000673e-01  9.8267104521590609e-01  9.8181601011406305e-01  9.8073872662891348e-01  9.7937996672021710e-01  9.7766133739774308e-01  9.7547874571181858e-01  9.7269352637219419e-01  9.6912044516953533e-01  9.6451158238921819e-01  9.5853489545651116e-01  9.5074613109249240e-01  9.4055285603818550e-01  9.2716999279436085e-01  9.0956789487572709e-01  8.8641748968631218e-01  8.5604346695484379e-01  8.1640697929895589e-01  7.6515381884631362e-01  6.9977898989334042e-01  6.1796327394504358e-01  5.1811159320011591e-01  4.0004388759033571e-01  2.6565683105107663e-01  1.1924952183211548e-01  -3.2788006784994321e-02  -1.8299441414475690e-01  -3.2426450092610593e-01  -4.5113720383165190e-01  -5.6048372114016043e-01  -6.5148015657165426e-01  -7.2507621763742747e-01  -7.8328843106416390e-01  -8.2857106534147085e-01  -8.6337697463561636e-01  -8.8991139560802690e-01  -9.1003104688654235e-01  -9.2523302798117324e-01  -9.3668962143655599e-01  -9.4530059002666034e-01  -9.5174720850795602e-01  -9.5654065373964325e-01  -9.6006221753100329e-01  -9.6259527098938069e-01  -9.6434997274896228e-01  -9.6548203230364782e-01  -9.6610680463081178e-01  -9.6630981633691582e-01  -9.6615461313502227e-01  -9.6568862114500342e-01  -9.6494754749738521e-01  -9.6395871178691539e-01  -9.6274359576283453e-01  -9.6131981904828223e-01  -9.5970268843051587e-01  -9.5790642288519878e-01  -9.5594512247769503e-01  -9.5383352402534338e-01  -9.5158756808743927e-01  -9.4922478925733422e-01  -9.4676453406903538e-01  -9.4422800755110881e-01  -9.4163815009975449e-01  -9.3901935037981388e-01  -9.3639700671237402e-01  -9.3379695796271112e-01  -9.3124481417295002e-01  -9.2876522580540921e-01  -9.2638113716258996e-01  -9.2411307315603908e-01  -9.2197850825644612e-01  -9.1999136179117957e-01  -9.1816165494514512e-01  -9.1649535261278436e-01  -9.1499439886082778e-01  -9.1365693970744233e-01  -9.1247771279127754e-01  -9.1144857172502702e-01  -9.1055910458506517e-01  -9.0979730169251694e-01  -9.0915022769360132e-01  -9.0860465658473433e-01  -9.0814763502719120e-01  -9.0776694811105152e-01  -9.0745147162851669e-01  -9.0719140490154737e-01  -9.0697838737826941e-01  -9.0680550979767183e-01  -9.0666723610351874e-01  -9.0655925513258429e-01  -9.0647828201644332e-01  -9.0642183197148363e-01  -9.0638800588362023e-01  -9.0637538311463151e-01  9.8475781084835401e-01  9.8472683260171046e-01  9.8463194269552146e-01  9.8446916661060169e-01  9.8423154676781133e-01  9.8390867907183843e-01  9.8348603033320114e-01  9.8294396092790304e-01  9.8225635514777820e-01  9.8138872785485354e-01  9.8029562701547157e-01  9.7891708445657988e-01  9.7717377743473965e-01  9.7496044618022037e-01  9.7213696295918905e-01  9.6851626552506864e-01  9.6384816096009374e-01  9.5779780516096991e-01  9.4991754201148793e-01  9.3961089850450430e-01  9.2608817141470701e-01  9.0831472243273892e-01  8.8495663724481066e-01  8.5433490251672106e-01  8.1440976714918500e-01  7.6283138352312541e-01  6.9710750458306259e-01  6.1494307860930930e-01  5.1477987432470240e-01  3.9648443335709810e-01  2.6200079228087059e-01  1.1566209429769266e-01  -3.6134651326014774e-02  -1.8595384914999263e-01  -3.2674190229778688e-01  -4.5309903152517628e-01  -5.6195051643156935e-01  -6.5250910667080941e-01  -7.2574196173894823e-01  -7.8366784809729784e-01  -8.2873392993167760e-01  -8.6338175462081912e-01  -8.8980450599370320e-01  -9.0984796889605346e-01  -9.2500017741369078e-01  -9.3642632259006209e-01  -9.4502084841469003e-01  -9.5146117578171674e-01  -9.5625578058606653e-01  -9.5978413388968131e-01  -9.6232844534693829e-01  -9.6409820013497805e-01  -9.6524879287621457e-01  -9.6589552577621618e-01  -9.6612406290958275e-01  -9.6599822348194475e-01  -9.6556580097780631e-01  -9.6486292935765572e-01  -9.6391738460259280e-01  -9.6275110663685981e-01  -9.6138214781765874e-01  -9.5982619459007879e-01  -9.5809776412623759e-01  -9.5621114430871890e-01  -9.5418112068711936e-01  -9.5202351620132308e-01  -9.4975555728158134e-01  -9.4739607256912617e-01  -9.4496552735794992e-01  -9.4248589743056044e-01  -9.3998038969497644e-01  -9.3747302323218673e-01  -9.3498809214585654e-01  -9.3254953989588985e-01  -9.3018028240015493e-01  -9.2790152290702088e-01  -9.2573210442843623e-01  -9.2368794464186332e-01  -9.2178159332404563e-01  -9.2002194378989255e-01  -9.1841411820340324e-01  -9.1695953314847811e-01  -9.1565613789330036e-01  -9.1449880480027756e-01  -9.1347984061609067e-01  -9.1258957988915423e-01  -9.1181701803898230e-01  -9.1115044171687920e-01  -9.1057801770527713e-01  -9.1008830803777097e-01  -9.0967068742004809e-01  -9.0931564845787960e-01  -9.0901498975009154e-01  -9.0876189079091452e-01  -9.0855088522483429e-01  -9.0837774992643083e-01  -9.0823933166210247e-01  -9.0813333654342188e-01  -9.0805811233816980e-01  -9.0801246365001331e-01  -9.0799555521875219e-01  9.8430311242379465e-01  9.8427172897678716e-01  9.8417540783997592e-01  9.8401005425525911e-01  9.8376854546130554e-01  9.8344026592889633e-01  9.8301041239639664e-01  9.8245900038352196e-01  9.8175947608054681e-01  9.8087680104871378e-01  9.7976482737130022e-01  9.7836271350583559e-01  9.7659004129728977e-01  9.7434017722215471e-01  9.7147127161677627e-01  9.6779410791800180e-01  9.6305580932098866e-01  9.5691821416378520e-01  9.4892961898990635e-01  9.3848871625803931e-01  9.2480021951271840e-01  9.0682339142133739e-01  8.8321828624874688e-01  8.5230108218782386e-01  8.1203043041239231e-01  7.6006110649647363e-01  6.9391560141514319e-01  6.1132760095705196e-01  5.1078342848989078e-01  3.9220670264702184e-01  2.5760018296285059e-01  1.1133996737940477e-01  -4.0167084322022227e-02  -1.8951613354678046e-01  -3.2971684270147000e-01  -4.5544521072612554e-01  -5.6369364137480749e-01  -6.5372035591834310e-01  -7.2651398467470496e-01  -7.8409572161016683e-01  -8.2890351406857155e-01  -8.6336454551262709e-01  -8.8965684220553864e-01  -9.0961256030203241e-01  -9.2470853635340156e-01  -9.3610128552902594e-01  -9.4467880974037033e-01  -9.5111391069901807e-01  -9.5591186227340130e-01  -9.5945000245848333e-01  -9.6200919900110482e-01  -9.6379817391061962e-01  -9.6497197895166897e-01  -9.6564587704010052e-01  -9.6590571049735663e-01  -9.6581563000234705e-01  -9.6542386412731673e-01  -9.6476704529823898e-01  -9.6387347654960009e-01  -9.6276562130593246e-01  -9.6146202051312213e-01  -9.5997878264648417e-01  -9.5833074805141871e-01  -9.5653239626193898e-01  -9.5459854080889350e-01  -9.5254483872974371e-01  -9.5038813025119240e-01  -9.4814661705732106e-01  -9.4583988453597867e-01  -9.4348877386093621e-01  -9.4111511313199014e-01  -9.3874132235853092e-01  -9.3638991397502302e-01  -9.3408291781235986e-01  -9.3184126592512628e-01  -9.2968417732239694e-01  -9.2762858455864095e-01  -9.2568864269798912e-01  -9.2387535616251915e-01  -9.2219635066855921e-01  -9.2065580654596513e-01  -9.1925455728260386e-01  -9.1799034440650962e-01  -9.1685820810435370e-01  -9.1585098341653937e-01  -9.1495986528690743e-01  -9.1417500263239948e-01  -9.1348608198137393e-01  -9.1288286478908010e-01  -9.1235564867647057e-01  -9.1189563078559988e-01  -9.1149516037220657e-01  -9.1114787686712528e-01  -9.1084873823994916e-01  -9.1059395205644178e-01  -9.1038082781616647e-01  -9.1020757396230978e-01  -9.1007306672241672e-01  -9.0997662130857315e-01  -9.0991779904198100e-01  -9.0989628326319427e-01  9.8377914598148675e-01  9.8374725441379618e-01  9.8364919821256647e-01  9.8348077144881729e-01  9.8323467792020613e-01  9.8290006483000758e-01  9.8246181856603298e-01  9.8189955670447515e-01  9.8118622088963836e-01  9.8028613730472058e-01  9.7915236080684154e-01  9.7772305094545686e-01  9.7591653801228162e-01  9.7362461977253389e-01  9.7070348044815058e-01  9.6696144278083285e-01  9.6214256184639646e-01  9.5590487843110428e-01  9.4779204754375146e-01  9.3719720393861661e-01  9.2331862334351011e-01  9.0510850930064035e-01  8.8121989996811956e-01  8.4996333108792044e-01  8.0929549024001501e-01  7.5687637469956970e-01  6.9024543111126424e-01  6.0716958043956670e-01  5.0618679255232335e-01  3.8728690184748804e-01  2.5254076737611819e-01  1.0637418991798127e-01  -4.4794802934752694e-02  -1.9359738796813072e-01  -3.3311691434039342e-01  -4.5811745456980368e-01  -5.6566925789060474e-01  -6.5508308943767868e-01  -7.2737214997192545e-01  -7.8456005790105310e-01  -8.2907369672910536e-01  -8.6332328760497923e-01  -8.8946906963954087e-01  -9.0932727959754134e-01  -9.2436173198576421e-01  -9.3571889928356355e-01  -9.4427936399968126e-01  -9.5071063720874305e-01  -9.5551434757493248e-01  -9.5906542143859930e-01  -9.6164322183434625e-01  -9.6345562470780011e-01  -9.6465731026142576e-01  -9.6536350939078852e-01  -9.6566027299225887e-01  -9.6561212731061707e-01  -9.6526778696456061e-01  -9.6466443530811041e-01  -9.6383095198933111e-01  -9.6279036677042629e-01  -9.6156174185283660e-01  -9.6016162706930708e-01  -9.5860518903161362e-01  -9.5690708322852969e-01  -9.5508211458116965e-01  -9.5314571522728087e-01  -9.5111425701791996e-01  -9.4900520944802025e-01  -9.4683715081418929e-01  -9.4462964070023192e-01  -9.4240296482051378e-01  -9.4017776810168474e-01  -9.3797459783097858e-01  -9.3581338481240284e-01  -9.3371289576947958e-01  -9.3169019378092366e-01  -9.2976014456450362e-01  -9.2793500444497978e-01  -9.2622412073271976e-01  -9.2463376728479307e-01  -9.2316712788703492e-01  -9.2182442874759696e-01  -9.2060320995653677e-01  -9.1949871537335848e-01  -9.1850437203812396e-01  -9.1761232457583719e-01  -9.1681398755349586e-01  -9.1610057937859546e-01  -9.1546360480929190e-01  -9.1489525895616819e-01  -9.1438873312659308e-01  -9.1393841127566688e-01  -9.1353995448750014e-01  -9.1319027920283447e-01  -9.1288744234038244e-01  -9.1263045268573495e-01  -9.1241903276380554e-01  -9.1225335882043901e-01  -9.1213380841247904e-01  -9.1206074476387200e-