<?xml version="1.0"?>
<VTKFile type="UnstructuredGrid"  version="0.1"  >
<UnstructuredGrid>
<Piece  NumberOfPoints="10201" NumberOfCells="20000">
<Points>
<DataArray  type="Float64"  NumberOfComponents="3"  format="ascii">0 0 0  0.25 0 0  0.5 0 0  0.75 0 0  1 0 0  1.25 0 0  1.5 0 0  1.75 0 0  2 0 0  2.25 0 0  2.5 0 0  2.75 0 0  3 0 0  3.25 0 0  3.5 0 0  3.75 0 0  4 0 0  4.25 0 0  4.5 0 0  4.75 0 0  5 0 0  5.25 0 0  5.5 0 0  5.75 0 0  6 0 0  6.25 0 0  6.5 0 0  6.75 0 0  7 0 0  7.25 0 0  7.5 0 0  7.75 0 0  8 0 0  8.25 0 0  8.5 0 0  8.75 0 0  9 0 0  9.25 0 0  9.5 0 0  9.75 0 0  10 0 0  10.25 0 0  10.5 0 0  10.75 0 0  11 0 0  11.25 0 0  11.5 0 0  11.75 0 0  12 0 0  12.25 0 0  12.5 0 0  12.75 0 0  13 0 0  13.25 0 0  13.5 0 0  13.75 0 0  14 0 0  14.25 0 0  14.5 0 0  14.75 0 0  15 0 0  15.25 0 0  15.5 0 0  15.75 0 0  16 0 0  16.25 0 0  16.5 0 0  16.75 0 0  17 0 0  17.25 0 0  17.5 0 0  17.75 0 0  18 0 0  18.25 0 0  18.5 0 0  18.75 0 0  19 0 0  19.25 0 0  19.5 0 0  19.75 0 0  20 0 0  20.25 0 0  20.5 0 0  20.75 0 0  21 0 0  21.25 0 0  21.5 0 0  21.75 0 0  22 0 0  22.25 0 0  22.5 0 0  22.75 0 0  23 0 0  23.25 0 0  23.5 0 0  23.75 0 0  24 0 0  24.25 0 0  24.5 0 0  24.75 0 0  25 0 0  0 0.25 0  0.25 0.25 0  0.5 0.25 0  0.75 0.25 0  1 0.25 0  1.25 0.25 0  1.5 0.25 0  1.75 0.25 0  2 0.25 0  2.25 0.25 0  2.5 0.25 0  2.75 0.25 0  3 0.25 0  3.25 0.25 0  3.5 0.25 0  3.75 0.25 0  4 0.25 0  4.25 0.25 0  4.5 0.25 0  4.75 0.25 0  5 0.25 0  5.25 0.25 0  5.5 0.25 0  5.75 0.25 0  6 0.25 0  6.25 0.25 0  6.5 0.25 0  6.75 0.25 0  7 0.25 0  7.25 0.25 0  7.5 0.25 0  7.75 0.25 0  8 0.25 0  8.25 0.25 0  8.5 0.25 0  8.75 0.25 0  9 0.25 0  9.25 0.25 0  9.5 0.25 0  9.75 0.25 0  10 0.25 0  10.25 0.25 0  10.5 0.25 0  10.75 0.25 0  11 0.25 0  11.25 0.25 0  11.5 0.25 0  11.75 0.25 0  12 0.25 0  12.25 0.25 0  12.5 0.25 0  12.75 0.25 0  13 0.25 0  13.25 0.25 0  13.5 0.25 0  13.75 0.25 0  14 0.25 0  14.25 0.25 0  14.5 0.25 0  14.75 0.25 0  15 0.25 0  15.25 0.25 0  15.5 0.25 0  15.75 0.25 0  16 0.25 0  16.25 0.25 0  16.5 0.25 0  16.75 0.25 0  17 0.25 0  17.25 0.25 0  17.5 0.25 0  17.75 0.25 0  18 0.25 0  18.25 0.25 0  18.5 0.25 0  18.75 0.25 0  19 0.25 0  19.25 0.25 0  19.5 0.25 0  19.75 0.25 0  20 0.25 0  20.25 0.25 0  20.5 0.25 0  20.75 0.25 0  21 0.25 0  21.25 0.25 0  21.5 0.25 0  21.75 0.25 0  22 0.25 0  22.25 0.25 0  22.5 0.25 0  22.75 0.25 0  23 0.25 0  23.25 0.25 0  23.5 0.25 0  23.75 0.25 0  24 0.25 0  24.25 0.25 0  24.5 0.25 0  24.75 0.25 0  25 0.25 0  0 0.5 0  0.25 0.5 0  0.5 0.5 0  0.75 0.5 0  1 0.5 0  1.25 0.5 0  1.5 0.5 0  1.75 0.5 0  2 0.5 0  2.25 0.5 0  2.5 0.5 0  2.75 0.5 0  3 0.5 0  3.25 0.5 0  3.5 0.5 0  3.75 0.5 0  4 0.5 0  4.25 0.5 0  4.5 0.5 0  4.75 0.5 0  5 0.5 0  5.25 0.5 0  5.5 0.5 0  5.75 0.5 0  6 0.5 0  6.25 0.5 0  6.5 0.5 0  6.75 0.5 0  7 0.5 0  7.25 0.5 0  7.5 0.5 0  7.75 0.5 0  8 0.5 0  8.25 0.5 0  8.5 0.5 0  8.75 0.5 0  9 0.5 0  9.25 0.5 0  9.5 0.5 0  9.75 0.5 0  10 0.5 0  10.25 0.5 0  10.5 0.5 0  10.75 0.5 0  11 0.5 0  11.25 0.5 0  11.5 0.5 0  11.75 0.5 0  12 0.5 0  12.25 0.5 0  12.5 0.5 0  12.75 0.5 0  13 0.5 0  13.25 0.5 0  13.5 0.5 0  13.75 0.5 0  14 0.5 0  14.25 0.5 0  14.5 0.5 0  14.75 0.5 0  15 0.5 0  15.25 0.5 0  15.5 0.5 0  15.75 0.5 0  16 0.5 0  16.25 0.5 0  16.5 0.5 0  16.75 0.5 0  17 0.5 0  17.25 0.5 0  17.5 0.5 0  17.75 0.5 0  18 0.5 0  18.25 0.5 0  18.5 0.5 0  18.75 0.5 0  19 0.5 0  19.25 0.5 0  19.5 0.5 0  19.75 0.5 0  20 0.5 0  20.25 0.5 0  20.5 0.5 0  20.75 0.5 0  21 0.5 0  21.25 0.5 0  21.5 0.5 0  21.75 0.5 0  22 0.5 0  22.25 0.5 0  22.5 0.5 0  22.75 0.5 0  23 0.5 0  23.25 0.5 0  23.5 0.5 0  23.75 0.5 0  24 0.5 0  24.25 0.5 0  24.5 0.5 0  24.75 0.5 0  25 0.5 0  0 0.75 0  0.25 0.75 0  0.5 0.75 0  0.75 0.75 0  1 0.75 0  1.25 0.75 0  1.5 0.75 0  1.75 0.75 0  2 0.75 0  2.25 0.75 0  2.5 0.75 0  2.75 0.75 0  3 0.75 0  3.25 0.75 0  3.5 0.75 0  3.75 0.75 0  4 0.75 0  4.25 0.75 0  4.5 0.75 0  4.75 0.75 0  5 0.75 0  5.25 0.75 0  5.5 0.75 0  5.75 0.75 0  6 0.75 0  6.25 0.75 0  6.5 0.75 0  6.75 0.75 0  7 0.75 0  7.25 0.75 0  7.5 0.75 0  7.75 0.75 0  8 0.75 0  8.25 0.75 0  8.5 0.75 0  8.75 0.75 0  9 0.75 0  9.25 0.75 0  9.5 0.75 0  9.75 0.75 0  10 0.75 0  10.25 0.75 0  10.5 0.75 0  10.75 0.75 0  11 0.75 0  11.25 0.75 0  11.5 0.75 0  11.75 0.75 0  12 0.75 0  12.25 0.75 0  12.5 0.75 0  12.75 0.75 0  13 0.75 0  13.25 0.75 0  13.5 0.75 0  13.75 0.75 0  14 0.75 0  14.25 0.75 0  14.5 0.75 0  14.75 0.75 0  15 0.75 0  15.25 0.75 0  15.5 0.75 0  15.75 0.75 0  16 0.75 0  16.25 0.75 0  16.5 0.75 0  16.75 0.75 0  17 0.75 0  17.25 0.75 0  17.5 0.75 0  17.75 0.75 0  18 0.75 0  18.25 0.75 0  18.5 0.75 0  18.75 0.75 0  19 0.75 0  19.25 0.75 0  19.5 0.75 0  19.75 0.75 0  20 0.75 0  20.25 0.75 0  20.5 0.75 0  20.75 0.75 0  21 0.75 0  21.25 0.75 0  21.5 0.75 0  21.75 0.75 0  22 0.75 0  22.25 0.75 0  22.5 0.75 0  22.75 0.75 0  23 0.75 0  23.25 0.75 0  23.5 0.75 0  23.75 0.75 0  24 0.75 0  24.25 0.75 0  24.5 0.75 0  24.75 0.75 0  25 0.75 0  0 1 0  0.25 1 0  0.5 1 0  0.75 1 0  1 1 0  1.25 1 0  1.5 1 0  1.75 1 0  2 1 0  2.25 1 0  2.5 1 0  2.75 1 0  3 1 0  3.25 1 0  3.5 1 0  3.75 1 0  4 1 0  4.25 1 0  4.5 1 0  4.75 1 0  5 1 0  5.25 1 0  5.5 1 0  5.75 1 0  6 1 0  6.25 1 0  6.5 1 0  6.75 1 0  7 1 0  7.25 1 0  7.5 1 0  7.75 1 0  8 1 0  8.25 1 0  8.5 1 0  8.75 1 0  9 1 0  9.25 1 0  9.5 1 0  9.75 1 0  10 1 0  10.25 1 0  10.5 1 0  10.75 1 0  11 1 0  11.25 1 0  11.5 1 0  11.75 1 0  12 1 0  12.25 1 0  12.5 1 0  12.75 1 0  13 1 0  13.25 1 0  13.5 1 0  13.75 1 0  14 1 0  14.25 1 0  14.5 1 0  14.75 1 0  15 1 0  15.25 1 0  15.5 1 0  15.75 1 0  16 1 0  16.25 1 0  16.5 1 0  16.75 1 0  17 1 0  17.25 1 0  17.5 1 0  17.75 1 0  18 1 0  18.25 1 0  18.5 1 0  18.75 1 0  19 1 0  19.25 1 0  19.5 1 0  19.75 1 0  20 1 0  20.25 1 0  20.5 1 0  20.75 1 0  21 1 0  21.25 1 0  21.5 1 0  21.75 1 0  22 1 0  22.25 1 0  22.5 1 0  22.75 1 0  23 1 0  23.25 1 0  23.5 1 0  23.75 1 0  24 1 0  24.25 1 0  24.5 1 0  24.75 1 0  25 1 0  0 1.25 0  0.25 1.25 0  0.5 1.25 0  0.75 1.25 0  1 1.25 0  1.25 1.25 0  1.5 1.25 0  1.75 1.25 0  2 1.25 0  2.25 1.25 0  2.5 1.25 0  2.75 1.25 0  3 1.25 0  3.25 1.25 0  3.5 1.25 0  3.75 1.25 0  4 1.25 0  4.25 1.25 0  4.5 1.25 0  4.75 1.25 0  5 1.25 0  5.25 1.25 0  5.5 1.25 0  5.75 1.25 0  6 1.25 0  6.25 1.25 0  6.5 1.25 0  6.75 1.25 0  7 1.25 0  7.25 1.25 0  7.5 1.25 0  7.75 1.25 0  8 1.25 0  8.25 1.25 0  8.5 1.25 0  8.75 1.25 0  9 1.25 0  9.25 1.25 0  9.5 1.25 0  9.75 1.25 0  10 1.25 0  10.25 1.25 0  10.5 1.25 0  10.75 1.25 0  11 1.25 0  11.25 1.25 0  11.5 1.25 0  11.75 1.25 0  12 1.25 0  12.25 1.25 0  12.5 1.25 0  12.75 1.25 0  13 1.25 0  13.25 1.25 0  13.5 1.25 0  13.75 1.25 0  14 1.25 0  14.25 1.25 0  14.5 1.25 0  14.75 1.25 0  15 1.25 0  15.25 1.25 0  15.5 1.25 0  15.75 1.25 0  16 1.25 0  16.25 1.25 0  16.5 1.25 0  16.75 1.25 0  17 1.25 0  17.25 1.25 0  17.5 1.25 0  17.75 1.25 0  18 1.25 0  18.25 1.25 0  18.5 1.25 0  18.75 1.25 0  19 1.25 0  19.25 1.25 0  19.5 1.25 0  19.75 1.25 0  20 1.25 0  20.25 1.25 0  20.5 1.25 0  20.75 1.25 0  21 1.25 0  21.25 1.25 0  21.5 1.25 0  21.75 1.25 0  22 1.25 0  22.25 1.25 0  22.5 1.25 0  22.75 1.25 0  23 1.25 0  23.25 1.25 0  23.5 1.25 0  23.75 1.25 0  24 1.25 0  24.25 1.25 0  24.5 1.25 0  24.75 1.25 0  25 1.25 0  0 1.5 0  0.25 1.5 0  0.5 1.5 0  0.75 1.5 0  1 1.5 0  1.25 1.5 0  1.5 1.5 0  1.75 1.5 0  2 1.5 0  2.25 1.5 0  2.5 1.5 0  2.75 1.5 0  3 1.5 0  3.25 1.5 0  3.5 1.5 0  3.75 1.5 0  4 1.5 0  4.25 1.5 0  4.5 1.5 0  4.75 1.5 0  5 1.5 0  5.25 1.5 0  5.5 1.5 0  5.75 1.5 0  6 1.5 0  6.25 1.5 0  6.5 1.5 0  6.75 1.5 0  7 1.5 0  7.25 1.5 0  7.5 1.5 0  7.75 1.5 0  8 1.5 0  8.25 1.5 0  8.5 1.5 0  8.75 1.5 0  9 1.5 0  9.25 1.5 0  9.5 1.5 0  9.75 1.5 0  10 1.5 0  10.25 1.5 0  10.5 1.5 0  10.75 1.5 0  11 1.5 0  11.25 1.5 0  11.5 1.5 0  11.75 1.5 0  12 1.5 0  12.25 1.5 0  12.5 1.5 0  12.75 1.5 0  13 1.5 0  13.25 1.5 0  13.5 1.5 0  13.75 1.5 0  14 1.5 0  14.25 1.5 0  14.5 1.5 0  14.75 1.5 0  15 1.5 0  15.25 1.5 0  15.5 1.5 0  15.75 1.5 0  16 1.5 0  16.25 1.5 0  16.5 1.5 0  16.75 1.5 0  17 1.5 0  17.25 1.5 0  17.5 1.5 0  17.75 1.5 0  18 1.5 0  18.25 1.5 0  18.5 1.5 0  18.75 1.5 0  19 1.5 0  19.25 1.5 0  19.5 1.5 0  19.75 1.5 0  20 1.5 0  20.25 1.5 0  20.5 1.5 0  20.75 1.5 0  21 1.5 0  21.25 1.5 0  21.5 1.5 0  21.75 1.5 0  22 1.5 0  22.25 1.5 0  22.5 1.5 0  22.75 1.5 0  23 1.5 0  23.25 1.5 0  23.5 1.5 0  23.75 1.5 0  24 1.5 0  24.25 1.5 0  24.5 1.5 0  24.75 1.5 0  25 1.5 0  0 1.75 0  0.25 1.75 0  0.5 1.75 0  0.75 1.75 0  1 1.75 0  1.25 1.75 0  1.5 1.75 0  1.75 1.75 0  2 1.75 0  2.25 1.75 0  2.5 1.75 0  2.75 1.75 0  3 1.75 0  3.25 1.75 0  3.5 1.75 0  3.75 1.75 0  4 1.75 0  4.25 1.75 0  4.5 1.75 0  4.75 1.75 0  5 1.75 0  5.25 1.75 0  5.5 1.75 0  5.75 1.75 0  6 1.75 0  6.25 1.75 0  6.5 1.75 0  6.75 1.75 0  7 1.75 0  7.25 1.75 0  7.5 1.75 0  7.75 1.75 0  8 1.75 0  8.25 1.75 0  8.5 1.75 0  8.75 1.75 0  9 1.75 0  9.25 1.75 0  9.5 1.75 0  9.75 1.75 0  10 1.75 0  10.25 1.75 0  10.5 1.75 0  10.75 1.75 0  11 1.75 0  11.25 1.75 0  11.5 1.75 0  11.75 1.75 0  12 1.75 0  12.25 1.75 0  12.5 1.75 0  12.75 1.75 0  13 1.75 0  13.25 1.75 0  13.5 1.75 0  13.75 1.75 0  14 1.75 0  14.25 1.75 0  14.5 1.75 0  14.75 1.75 0  15 1.75 0  15.25 1.75 0  15.5 1.75 0  15.75 1.75 0  16 1.75 0  16.25 1.75 0  16.5 1.75 0  16.75 1.75 0  17 1.75 0  17.25 1.75 0  17.5 1.75 0  17.75 1.75 0  18 1.75 0  18.25 1.75 0  18.5 1.75 0  18.75 1.75 0  19 1.75 0  19.25 1.75 0  19.5 1.75 0  19.75 1.75 0  20 1.75 0  20.25 1.75 0  20.5 1.75 0  20.75 1.75 0  21 1.75 0  21.25 1.75 0  21.5 1.75 0  21.75 1.75 0  22 1.75 0  22.25 1.75 0  22.5 1.75 0  22.75 1.75 0  23 1.75 0  23.25 1.75 0  23.5 1.75 0  23.75 1.75 0  24 1.75 0  24.25 1.75 0  24.5 1.75 0  24.75 1.75 0  25 1.75 0  0 2 0  0.25 2 0  0.5 2 0  0.75 2 0  1 2 0  1.25 2 0  1.5 2 0  1.75 2 0  2 2 0  2.25 2 0  2.5 2 0  2.75 2 0  3 2 0  3.25 2 0  3.5 2 0  3.75 2 0  4 2 0  4.25 2 0  4.5 2 0  4.75 2 0  5 2 0  5.25 2 0  5.5 2 0  5.75 2 0  6 2 0  6.25 2 0  6.5 2 0  6.75 2 0  7 2 0  7.25 2 0  7.5 2 0  7.75 2 0  8 2 0  8.25 2 0  8.5 2 0  8.75 2 0  9 2 0  9.25 2 0  9.5 2 0  9.75 2 0  10 2 0  10.25 2 0  10.5 2 0  10.75 2 0  11 2 0  11.25 2 0 
[...]
<PointData  Scalars="f_23"> 
<DataArray  type="Float64"  Name="f_23"  format="ascii">-1.2297358538455511e-01  -1.2057314155082079e-01  -1.1464303859714618e-01  -1.0507950736612036e-01  -9.1947549331168332e-02  -7.5391594842455167e-02  -5.5613929235488246e-02  -3.2868151112801100e-02  -7.4552020027427550e-03  2.0281505524651348e-02  4.9962994498821953e-02  8.1183927844047182e-02  1.1352385348907169e-01  1.4655984421692481e-01  1.7987961661551499e-01  2.1309409165132573e-01  2.4584840038598771e-01  2.7783052779773726e-01  3.0877708240521529e-01  3.3847601892103263e-01  3.6676646360761139e-01  3.9353604851405849e-01  4.1871632401435455e-01  4.4227688446859220e-01  4.6421882289818328e-01  4.8456805123837904e-01  5.0336890966563874e-01  5.2067836529700096e-01  5.3656098464657298e-01  5.5108476610264379e-01  5.6431784281000585e-01  5.7632601274253070e-01  5.8717101878939582e-01  5.9690948348715245e-01  6.0559239653468011e-01  6.1326505474541559e-01  6.1996736059629942e-01  6.2573439471009507e-01  6.3059718778260010e-01  6.3458362749113539e-01  6.3771944505951550e-01  6.4002923398887690e-01  6.4153745982550470e-01  6.4226942476637161e-01  6.4225215462085805e-01  6.4151517853015350e-01  6.4009117439884067e-01  6.3801645580547539e-01  6.3533127984349080e-01  6.3207996045741388e-01  6.2831077879086561e-01  6.2407569101813476e-01  6.1942984493268982e-01  6.1443092868330185e-01  6.0913838757711281e-01  6.0361255659034396e-01  5.9791376573052291e-01  5.9210148125105211e-01  5.8623354668973782e-01  5.8036558294007301e-01  5.7455059578042711e-01  5.6883882285546006e-01  5.6327783107388563e-01  5.5791285140151337e-01  5.5278731317307528e-01  5.4794351663668583e-01  5.4342336279772063e-01  5.3926904584044255e-01  5.3552360716094449e-01  5.3223125247070202e-01  5.2943734499191863e-01  5.2718800820574085e-01  5.2552929992309594e-01  5.2450595387376742e-01  5.2415972311043058e-01  5.2452739827755579e-01  5.2563860977686550e-01  5.2751355250939447e-01  5.3016079182721432e-01  5.3357531681636905e-01  5.3773700028380578e-01  5.4260960341279840e-01  5.4814042814546471e-01  5.5426067474004359e-01  5.6088650986930344e-01  5.6792079731697998e-01  5.7525539439807516e-01  5.8277387788477009e-01  5.9035453751962330e-01  5.9787346544314590e-01  6.0520757626146404e-01  6.1223741312512081e-01  6.1884962631136020e-01  6.2493904708330972e-01  6.3041031403967562e-01  6.3517903089901007e-01  6.3917241884654985e-01  6.4232929152005569e-01  6.4459859838815503e-01  6.4593329412177769e-01  6.4626499247443314e-01  -1.2147564511613061e-01  -1.1943664206897735e-01  -1.1361424728790907e-01  -1.0410728752136136e-01  -9.1026058978956589e-02  -7.4526017274439860e-02  -5.4812267670310576e-02  -3.2138906664176937e-02  -6.8064978766038189e-03  2.0842395272268967e-02  5.0429968327335581e-02  8.1552291868786389e-02  1.1379047650414405e-01  1.4672323026270989e-01  1.7993989547071024e-01  2.1305293419746993e-01  2.4570887215513920e-01  2.7759689821383832e-01  3.0845460859243368e-01  3.3807072170516972e-01  3.6628491023987564e-01  3.9298515263283518e-01  4.1810316925854041e-01  4.4160857454346358e-01  4.6350235807329193e-01  4.8381022930319001e-01  5.0257624821278701e-01  5.1985704170146796e-01  5.3571679009557527e-01  5.5022307034676721e-01  5.6344356681396712e-01  5.7544360700358121e-01  5.8628444567997073e-01  5.9602220250920490e-01  6.0470735181326185e-01  6.1238466442610606e-01  6.1909350804953345e-01  6.2486842160238643e-01  6.2973988917522672e-01  6.3373524919967050e-01  6.3687968358036140e-01  6.3919723939463902e-01  6.4071184216453736e-01  6.4144826467760252e-01  6.4143301908564332e-01  6.4069514290884988e-01  6.3926685211021872e-01  6.3718403716252725e-01  6.3448658161523208e-01  6.3121848763908972e-01  6.2742779979761321e-01  6.2316632704650798e-01  6.1848917355759547e-01  6.1345410089681585e-01  6.0812075647907338e-01  6.0254981488203008e-01  5.9680208813410729e-01  5.9093766707934203e-01  5.8501515711939189e-01  5.7909106717631187e-01  5.7321940029326091e-01  5.6745147823222886e-01  5.6183601174891828e-01  5.5641940453643091e-01  5.5124625419213413e-01  5.4635999027998439e-01  5.4180356995081336e-01  5.3762013775251460e-01  5.3385354991326561e-01  5.3054866566022063e-01  5.2775131952655907e-01  5.2550790885526366e-01  5.2386455882501426e-01  5.2286586155045267e-01  5.2255322370034829e-01  5.2296289560568454e-01  5.2412379057042235e-01  5.2605523249199015e-01  5.2876478959377093e-01  5.3224635931393238e-01  5.3647866243073616e-01  5.4142428293335432e-01  5.4702935515192153e-01  5.5322395405034064e-01  5.5992319260451329e-01  5.6702897707966815e-01  5.7443232237994502e-01  5.8201609066066462e-01  5.8965799110037775e-01  5.9723366940212663e-01  6.0461972242550777e-01  6.1169649445901308e-01  6.1835054337643902e-01  6.2447670238562847e-01  6.2997970070973097e-01  6.3477533879899040e-01  6.3879123732465259e-01  6.4196720734041957e-01  6.4425543552642228e-01  6.4562164248147769e-01  6.4605414586975751e-01  -1.1819416349298353e-01  -1.1625902674117021e-01  -1.1054565741227489e-01  -1.0115159214714245e-01  -8.8199790067519532e-02  -7.1852763186861346e-02  -5.2318392333054672e-02  -2.9851153919003975e-02  -4.7505128631226794e-03  2.2643159865678407e-02  5.1955158905566470e-02  8.2785414314911668e-02  1.1471948938592093e-01  1.4734093473277338e-01  1.8024409423115934e-01  2.1304635196353153e-01  2.4539885357942814e-01  2.7699492023304340e-01  3.0757565862940722e-01  3.3693259926962332e-01  3.6490750744607442e-01  3.9138976076359588e-01  4.1631184631928769e-01  4.3964359539303893e-01  4.6138575632879175e-01  4.8156343017937325e-01  5.0021978438422043e-01  5.1741034015161536e-01  5.3319801631364960e-01  5.4764901652242504e-01  5.6082957219991425e-01  5.7280350077828757e-01  5.8363050498564351e-01  5.9336512054437551e-01  6.0205621273677723e-01  6.0974692330075930e-01  6.1647497512165950e-01  6.2227325093651653e-01  6.2717057213026972e-01  6.3119261354695522e-01  6.3436289932201173e-01  6.3670383262412766e-01  6.3823771867476153e-01  6.3898774548794157e-01  6.3897889061522339e-01  6.3823872512024260e-01  6.3679808850571462e-01  6.3469161092875848e-01  6.3195806236207053e-01  6.2864051294640877e-01  6.2478629506677286e-01  6.2044676588549708e-01  6.1567687909480873e-01  6.1053458606840172e-01  6.0508009858929623e-01  5.9937505678280245e-01  5.9348165544920317e-01  5.8746178827961359e-01  5.8137627120321067e-01  5.7528420245271439e-01  5.6924250746394578e-01  5.6330570169257121e-01  5.5752588474884235e-01  5.5195295643843800e-01  5.4663502134327313e-01  5.4161892574220738e-01  5.3695085126633957e-01  5.3267687583515611e-01  5.2884340587341594e-01  5.2549738576250127e-01  5.2268620146559641e-01  5.2045721507251352e-01  5.1885689464983831e-01  5.1792953750067783e-01  5.1771562227302370e-01  5.1824986325668421e-01  5.1955907523276867e-01  5.2165998582424900e-01  5.2455715110613754e-01  5.2824113655798122e-01  5.3268711759374865e-01  5.3785403157041622e-01  5.4368437763480992e-01  5.5010471491863477e-01  5.5702685774873006e-01  5.6434971398002343e-01  5.7196166486562394e-01  5.7974334717664022e-01  5.8757067449717892e-01  5.9531792689342100e-01  6.0286074656739508e-01  6.1007889972750851e-01  6.1685869822031192e-01  6.2309501410116641e-01  6.2869286216422315e-01  6.3356856758619096e-01  6.3765058302832422e-01  6.4088009532502521e-01  6.4321173791229602e-01  6.4461515101921696e-01  6.4507869776558957e-01  -1.1288769175963220e-01  -1.1100423590791773e-01  -1.0540169341858731e-01  -9.6163431147099063e-02  -8.3411681896630452e-02  -6.7310497625657967e-02  -4.8068421633383970e-02  -2.5939131683231934e-02  -1.2198035848147123e-03  2.5752920465092897e-02  5.4609421035773195e-02  8.4955927334154080e-02  1.1638528808479778e-01  1.4848901748326732e-01  1.8086973439011969e-01  2.1315301992755731e-01  2.4499776748601126e-01  2.7610428005725229e-01  3.0621964488262249e-01  3.3514023026688355e-01  3.6271144805952582e-01  3.8882516329307265e-01  4.1341528470672517e-01  4.3645213191563514e-01  4.5793615888929001e-01  4.7789154092498126e-01  4.9636002786746736e-01  5.1339535172272754e-01  5.2905836826952124e-01  5.4341301970227063e-01  5.5652313308699486e-01  5.6845001771977199e-01  5.7925079106733735e-01  5.8897734438478488e-01  5.9767585165573545e-01  6.0538672582272579e-01  6.1214493158843652e-01  6.1798057222256175e-01  6.2291967722714048e-01  6.2698512728526679e-01  6.3019766189751736e-01  6.3257692302966284e-01  6.3414249470893114e-01  6.3491490375770621e-01  6.3491655085674614e-01  6.3417254415491908e-01  6.3271141009681431e-01  6.3056565853662128e-01  6.2777218211515728e-01  6.2437247385212791e-01  6.2041265240520649e-01  6.1594329174054419e-01  6.1101906104286974e-01  6.0569819123130764e-01  6.0004179574888517e-01  5.9411308434574239e-01  5.8797651813137164e-01  5.8169696089383116e-01  5.7533888433131120e-01  5.6896568245999402e-01  5.6263914256326764e-01  5.5641910673421502e-01  5.5036334008371834e-01  5.4452760040091752e-01  5.3896588132034895e-01  5.3373077905006527e-01  5.2887391372831105e-01  5.2444632265609281e-01  5.2049873580930550e-01  5.1708164545072710e-01  5.1424509195585755e-01  5.1203810699288099e-01  5.1050778200514257e-01  5.0969796278373236e-01  5.0964760730273950e-01  5.1038888083401279e-01  5.1194509618496964e-01  5.1432863413554508e-01  5.1753899647373869e-01  5.2156114879510773e-01  5.2636430086181252e-01  5.3190124864293753e-01  5.3810836562589948e-01  5.4490628466477997e-01  5.5220125996378344e-01  5.5988714713061971e-01  5.6784789314358930e-01  5.7596039257107545e-01  5.8409754518966706e-01  5.9213134516243660e-01  5.9993584298611158e-01  6.0738984637324389e-01  6.1437926151757427e-01  6.2079901753452160e-01  6.2655456037772872e-01  6.3156294600103935e-01  6.3575360701873662e-01  6.3906891746311800e-01  6.4146473602772203e-01  6.4291110656937944e-01  6.4339288235502190e-01  -1.0540343017414937e-01  -1.0356570309010867e-01  -9.8089376252962934e-02  -8.9049585988204658e-02  -7.6565421373600076e-02  -6.0799828356419824e-02  -4.1960210015873647e-02  -2.0298069755230415e-02  3.8930833981538865e-03  3.0281964959262171e-02  5.8506033436718792e-02  8.8180193168800602e-02  1.1890729579839397e-01  1.5028978991726019e-01  1.8194167499422709e-01  2.1349983648668677e-01  2.4463389245929884e-01  2.7505385738719967e-01  3.0451519008764244e-01  3.3282108923058151e-01  3.5982217986592363e-01  3.8541395699999553e-01  4.0953249451613405e-01  4.3214898572404342e-01  4.5326366681015606e-01  4.7289960662414887e-01  4.9109674824177202e-01  5.0790647986300286e-01  5.2338691000336257e-01  5.3759893395899416e-01  5.5060310935515944e-01  5.6245730858230769e-01  5.7321508307780411e-01  5.8292465559231832e-01  5.9162844841039741e-01  5.9936305487726727e-01  6.0615956594070808e-01  6.1204417073990958e-01  6.1703895906905293e-01  6.2116286273736832e-01  6.2443268168798727e-01  6.2686414872121898e-01  6.2847299348893315e-01  6.2927597195356400e-01  6.2929183176782366e-01  6.2854218721519084e-01  6.2705227978672573e-01  6.2485160260733752e-01  6.2197436929354200e-01  6.1845981097172087e-01  6.1435228959750787e-01  6.0970122173263819e-01  6.0456081466316458e-01  5.9898962599082217e-01  5.9304996807182997e-01  5.8680718906610707e-01  5.8032887178936976e-01  5.7368399878789034e-01  5.6694213586232711e-01  5.6017268564266487e-01  5.5344425713643763e-01  5.4682418634020413e-01  5.4037822753104170e-01  5.3417041586303959e-01  5.2826308103875552e-01  5.2271697114578497e-01  5.1759142746338604e-01  5.1294453732507339e-01  5.0883318486391704e-01  5.0531292007490847e-01  5.0243757585219306e-01  5.0025858046709415e-01  4.9882393846893291e-01  4.9817688449069358e-01  4.9835424942376122e-01  4.9938461375918902e-01  5.0128635504968833e-01  5.0406572181848608e-01  5.0771508152379685e-01  5.1221149280260914e-01  5.1751574072378781e-01  5.2357194820852981e-01  5.3030783881226895e-01  5.3763567901828901e-01  5.4545387672387169e-01  5.5364916216972782e-01  5.6209923372943194e-01  5.7067571859300503e-01  5.7924728088101596e-01  5.8768270862196759e-01  5.9585382572731616e-01  6.0363810311211563e-01  6.1092088056285010e-01  6.1759715334592957e-01  6.2357292056229929e-01  6.2876613237508971e-01  6.3310730763208778e-01  6.3653991741448457e-01  6.3902062825025097e-01  6.4051942349038582e-01  6.4101937351632388e-01  -9.5593008174386387e-02  -9.3806575354210039e-02  -8.8479459336566244e-02  -7.9682704311732577e-02  -6.7532620554059938e-02  -5.2190126404990905e-02  -3.3860324036697365e-02  -1.2791323402433878e-02  1.0728395932581292e-02  3.6374521498400571e-02  6.3793519501939205e-02  9.2611225080589873e-02  1.2244303748028093e-01  1.5290509921769063e-01  1.8362566521792839e-01  2.1425580358530885e-01  2.4447862760183128e-01  2.7401642679327487e-01  3.0263530946404038e-01  3.3014724353712971e-01  3.5640964003366965e-01  3.8132282744842433e-01  4.0482589526880952e-01  4.2689143768488563e-01  4.4751971452032452e-01  4.6673268392913358e-01  4.8456827103446948e-01  5.0107513687881378e-01  5.1630811667237986e-01  5.3032441398865082e-01  5.4318057221314997e-01  5.5493019667690335e-01  5.6562236880342864e-01  5.7530067452094658e-01  5.8400276014339303e-01  5.9176032713701932e-01  5.9859948034486188e-01  6.0454135051446933e-01  6.0960291998420046e-01  6.1379798910617789e-01  6.1713822966663967e-01  6.1963427965997397e-01  6.2129684090129311e-01  6.2213774689525403e-01  6.2217097303703972e-01  6.2141356467923148e-01  6.1988646108196077e-01  6.1761519513765040e-01  6.1463045049715681e-01  6.1096845984859072e-01  6.0667123112823085e-01  6.0178659279595603e-01  5.9636805522936687e-01  5.9047449277382802e-01  5.8416965972111035e-01  5.7752156285400158e-01  5.7060172228540706e-01  5.6348436004122260e-01  5.5624556102729805e-01  5.4896245262372589e-01  5.4171244638046923e-01  5.3457257779413003e-01  5.2761896811852838e-01  5.2092641638801662e-01  5.1456811166506544e-01  5.0861543677695986e-01  5.0313781758331377e-01  4.9820255828718807e-01  4.9387459546220874e-01  4.9021610289354117e-01  4.8728588696919645e-01  4.8513852836299903e-01  4.8382324938163818e-01  4.8338251595209958e-01  4.8385041630354325e-01  4.8525089176838926e-01  4.8759592518822298e-01  4.9088381548703586e-01  4.9509767974247892e-01  5.0020432402305071e-01  5.0615361007557935e-01  5.1287841691928349e-01  5.2029525653334274e-01  5.2830555476628727e-01  5.3679755729808476e-01  5.4564877159426883e-01  5.5472881486525050e-01  5.6390250973428702e-01  5.7303305665981163e-01  5.8198511612676829e-01  5.9062765304492126e-01  5.9883642763640599e-01  6.0649605705133824e-01  6.1350161517290480e-01  6.1975977986600306e-01  6.2518957311759060e-01  6.2972276617414369e-01  6.3330403373427968e-01  6.3589092941077119e-01  6.3745370557683390e-01  6.3797491589695421e-01  -8.3300201772563323e-02  -8.1573868238684247e-02  -7.6422243114925542e-02  -6.7914214630857464e-02  -5.6163897750525431e-02  -4.1329860128936122e-02  -2.3614125598311140e-02  -3.2603675372143036e-03  1.9449243754244051e-02  4.4198906936920843e-02  7.0645912673004491e-02  9.8429114253870603e-02  1.2717878010631253e-01  1.5652724067709772e-01  1.8611959320829252e-01  2.1562368005912841e-01  2.4473861876082781e-01  2.7320132196423791e-01  3.0079067119942288e-01  3.2732925812428465e-01  3.5268283929891892e-01  3.7675783348977571e-01  3.9949730659119342e-01  4.2087593598532941e-01  4.4089443298319647e-01  4.5957384527279777e-01  4.7695007934389905e-01  4.9306889207254584e-01  5.0798151341722753e-01  5.2174098627441123e-01  5.3439924861441035e-01  5.4600493763555302e-01  5.5660186446489035e-01  5.6622808857570062e-01  5.7491551102112737e-01  5.8268990241521124e-01  5.8957128331666431e-01  5.9557457968712912e-01  6.0071048316686215e-01  6.0498645408204421e-01  6.0840781362141427e-01  6.1097887990086241e-01  6.1270411020411075e-01  6.1358921819863910e-01  6.1364224016415136e-01  6.1287452816981247e-01  6.1130165078895671e-01  6.0894418359657321e-01  6.0582837274555379e-01  6.0198665585377242e-01  5.9745802579147800e-01  5.9228822524593117e-01  5.8652976355918296e-01  5.8024175250098065e-01  5.7348956431602249e-01  5.6634432324534445e-01  5.5888225014220638e-01  5.5118388790569339e-01  5.4333324219615720e-01  5.3541687619499123e-01  5.2752299906906708e-01  5.1974058462993222e-01  5.1215854921388015e-01  5.0486500637603726e-01  4.9794660150778774e-01  4.9148791342534853e-01  4.8557089424323696e-01  4.8027430557743783e-01  4.7567310043519617e-01  4.7183769785609153e-01  4.6883310271542600e-01  4.6671783653086252e-01  4.6554266612035344e-01  4.6534914402983213e-01  4.6616800531753771e-01  4.6801749630722589e-01  4.7090173858244383e-01  4.7480925198405816e-01  4.7971177028309775e-01  4.8556348002022609e-01  4.9230079558757689e-01  4.9984275254414617e-01  5.0809205881300823e-01  5.1693679391996961e-01  5.2625269516856177e-01  5.3590592252219582e-01  5.4575615657555288e-01  5.5565986074775642e-01  5.6547353224103802e-01  5.7505677665337784e-01  5.8427506647185001e-01  5.9300208026985035e-01  6.0112156244418324e-01  6.0852868759208212e-01  6.1513095433289811e-01  6.2084866645435866e-01  6.2561508135514388e-01  6.2937631388335757e-01  6.3209107534068598e-01  6.3373030374584238e-01  6.3427671834009280e-01  -6.8367608233137117e-02  -6.6711137842534324e-02  -6.1762331714899525e-02  -5.3588715082979681e-02  -4.2302501486775286e-02  -2.8059665126489018e-02  -1.1058505431837522e-02  8.4626879085344126e-03  3.0229256935491767e-02  5.3935355739763630e-02  7.9250774415164704e-02  1.0582926931166091e-01  1.3331803721761074e-01  1.6136778061864909e-01  1.8964268933429021e-01  2.1782963364683280e-01  2.4564593113621297e-01  2.7284520032553145e-01  2.9922101993181038e-01  3.2460833614078882e-01  3.4888276611934060e-01  3.7195810676349306e-01  3.9378245894121633e-01  4.1433341761437931e-01  4.3361276571964780e-01  4.5164105890320766e-01  4.6845241506652507e-01  4.8408974145992789e-01  4.9860055355970173e-01  5.1203347101748298e-01  5.2443541986525977e-01  5.3584952752199022e-01  5.4631366692892780e-01  5.5585958646152478e-01  5.6451255102697706e-01  5.7229141499957314e-01  5.7920904771291482e-01  5.8527303578429613e-01  5.9048659253057445e-01  5.9484961228314803e-01  5.9835981578933706e-01  6.0101394145370435e-01  6.0280894535458340e-01  6.0374318028100393e-01  6.0381753009498873e-01  6.0303648029472801e-01  6.0140910866106712e-01  5.9894998141712996e-01  5.9567994069784147e-01  5.9162676874434583e-01  5.8682571365067049e-01  5.8131986129163860e-01  5.7516033882765250e-01  5.6840633739009294e-01  5.6112494549872338e-01  5.5339079049932161e-01  5.4528549258826187e-01  5.3689694425005396e-01  5.2831843632684949e-01  5.1964765941002766e-01  5.1098561465717118e-01  5.0243547044658532e-01  4.9410139972073058e-01  4.8608742713921599e-01  4.7849630556606898e-01  4.7142842892628356e-01  4.6498077467851240e-01  4.5924585612730578e-01  4.5431065481221677e-01  4.5025549841691515e-01  4.4715285172498070e-01  4.4506599800730662e-01  4.4404760572799246e-01  4.4413819932349119e-01  4.4536458064713086e-01  4.4773827614809880e-01  4.5125411004549643e-01  4.5588902161408307e-01  4.6160125160564763e-01  4.6833001620243186e-01  4.7599576570913615e-01  4.8450109033852756e-01  4.9373228986784912e-01  5.0356157237916943e-01  5.1384979571193468e-01  5.2444961997852346e-01  5.3520890621527828e-01  5.4597417908095069e-01  5.5659397234614261e-01  5.6692189411381266e-01  5.7681928134864913e-01  5.8615735575543682e-01  5.9481883986529827e-01  6.0269903791794355e-01  6.0970642605520498e-01  6.1576282690776285e-01  6.2080326258398033e-01  6.2477558638359953e-01  6.2763998803911625e-01  6.2936845416544518e-01  6.2994425560786627e-01  -5.0649908346184665e-02  -4.9073213131289824e-02  -4.4354378310373553e-02  -3.6559819576220155e-02  -2.5799849986387652e-02  -1.2227510258986409e-02  3.9632819143905554e-03  2.2540546026607277e-02  4.3238289225978992e-02  6.5761970567362077e-02  8.9795398951235700e-02  1.1500889415331994e-01  1.4106834990237166e-01  1.6764468145352046e-01  1.9442304667017044e-01  2.2111121730125824e-01  2.4744654840775471e-01  2.7320113511885480e-01  2.9818493099793392