<?xml version="1.0"?>
<VTKFile type="UnstructuredGrid"  version="0.1"  >
<UnstructuredGrid>
<Piece  NumberOfPoints="10201" NumberOfCells="20000">
<Points>
<DataArray  type="Float64"  NumberOfComponents="3"  format="ascii">0 0 0  0.25 0 0  0.5 0 0  0.75 0 0  1 0 0  1.25 0 0  1.5 0 0  1.75 0 0  2 0 0  2.25 0 0  2.5 0 0  2.75 0 0  3 0 0  3.25 0 0  3.5 0 0  3.75 0 0  4 0 0  4.25 0 0  4.5 0 0  4.75 0 0  5 0 0  5.25 0 0  5.5 0 0  5.75 0 0  6 0 0  6.25 0 0  6.5 0 0  6.75 0 0  7 0 0  7.25 0 0  7.5 0 0  7.75 0 0  8 0 0  8.25 0 0  8.5 0 0  8.75 0 0  9 0 0  9.25 0 0  9.5 0 0  9.75 0 0  10 0 0  10.25 0 0  10.5 0 0  10.75 0 0  11 0 0  11.25 0 0  11.5 0 0  11.75 0 0  12 0 0  12.25 0 0  12.5 0 0  12.75 0 0  13 0 0  13.25 0 0  13.5 0 0  13.75 0 0  14 0 0  14.25 0 0  14.5 0 0  14.75 0 0  15 0 0  15.25 0 0  15.5 0 0  15.75 0 0  16 0 0  16.25 0 0  16.5 0 0  16.75 0 0  17 0 0  17.25 0 0  17.5 0 0  17.75 0 0  18 0 0  18.25 0 0  18.5 0 0  18.75 0 0  19 0 0  19.25 0 0  19.5 0 0  19.75 0 0  20 0 0  20.25 0 0  20.5 0 0  20.75 0 0  21 0 0  21.25 0 0  21.5 0 0  21.75 0 0  22 0 0  22.25 0 0  22.5 0 0  22.75 0 0  23 0 0  23.25 0 0  23.5 0 0  23.75 0 0  24 0 0  24.25 0 0  24.5 0 0  24.75 0 0  25 0 0  0 0.25 0  0.25 0.25 0  0.5 0.25 0  0.75 0.25 0  1 0.25 0  1.25 0.25 0  1.5 0.25 0  1.75 0.25 0  2 0.25 0  2.25 0.25 0  2.5 0.25 0  2.75 0.25 0  3 0.25 0  3.25 0.25 0  3.5 0.25 0  3.75 0.25 0  4 0.25 0  4.25 0.25 0  4.5 0.25 0  4.75 0.25 0  5 0.25 0  5.25 0.25 0  5.5 0.25 0  5.75 0.25 0  6 0.25 0  6.25 0.25 0  6.5 0.25 0  6.75 0.25 0  7 0.25 0  7.25 0.25 0  7.5 0.25 0  7.75 0.25 0  8 0.25 0  8.25 0.25 0  8.5 0.25 0  8.75 0.25 0  9 0.25 0  9.25 0.25 0  9.5 0.25 0  9.75 0.25 0  10 0.25 0  10.25 0.25 0  10.5 0.25 0  10.75 0.25 0  11 0.25 0  11.25 0.25 0  11.5 0.25 0  11.75 0.25 0  12 0.25 0  12.25 0.25 0  12.5 0.25 0  12.75 0.25 0  13 0.25 0  13.25 0.25 0  13.5 0.25 0  13.75 0.25 0  14 0.25 0  14.25 0.25 0  14.5 0.25 0  14.75 0.25 0  15 0.25 0  15.25 0.25 0  15.5 0.25 0  15.75 0.25 0  16 0.25 0  16.25 0.25 0  16.5 0.25 0  16.75 0.25 0  17 0.25 0  17.25 0.25 0  17.5 0.25 0  17.75 0.25 0  18 0.25 0  18.25 0.25 0  18.5 0.25 0  18.75 0.25 0  19 0.25 0  19.25 0.25 0  19.5 0.25 0  19.75 0.25 0  20 0.25 0  20.25 0.25 0  20.5 0.25 0  20.75 0.25 0  21 0.25 0  21.25 0.25 0  21.5 0.25 0  21.75 0.25 0  22 0.25 0  22.25 0.25 0  22.5 0.25 0  22.75 0.25 0  23 0.25 0  23.25 0.25 0  23.5 0.25 0  23.75 0.25 0  24 0.25 0  24.25 0.25 0  24.5 0.25 0  24.75 0.25 0  25 0.25 0  0 0.5 0  0.25 0.5 0  0.5 0.5 0  0.75 0.5 0  1 0.5 0  1.25 0.5 0  1.5 0.5 0  1.75 0.5 0  2 0.5 0  2.25 0.5 0  2.5 0.5 0  2.75 0.5 0  3 0.5 0  3.25 0.5 0  3.5 0.5 0  3.75 0.5 0  4 0.5 0  4.25 0.5 0  4.5 0.5 0  4.75 0.5 0  5 0.5 0  5.25 0.5 0  5.5 0.5 0  5.75 0.5 0  6 0.5 0  6.25 0.5 0  6.5 0.5 0  6.75 0.5 0  7 0.5 0  7.25 0.5 0  7.5 0.5 0  7.75 0.5 0  8 0.5 0  8.25 0.5 0  8.5 0.5 0  8.75 0.5 0  9 0.5 0  9.25 0.5 0  9.5 0.5 0  9.75 0.5 0  10 0.5 0  10.25 0.5 0  10.5 0.5 0  10.75 0.5 0  11 0.5 0  11.25 0.5 0  11.5 0.5 0  11.75 0.5 0  12 0.5 0  12.25 0.5 0  12.5 0.5 0  12.75 0.5 0  13 0.5 0  13.25 0.5 0  13.5 0.5 0  13.75 0.5 0  14 0.5 0  14.25 0.5 0  14.5 0.5 0  14.75 0.5 0  15 0.5 0  15.25 0.5 0  15.5 0.5 0  15.75 0.5 0  16 0.5 0  16.25 0.5 0  16.5 0.5 0  16.75 0.5 0  17 0.5 0  17.25 0.5 0  17.5 0.5 0  17.75 0.5 0  18 0.5 0  18.25 0.5 0  18.5 0.5 0  18.75 0.5 0  19 0.5 0  19.25 0.5 0  19.5 0.5 0  19.75 0.5 0  20 0.5 0  20.25 0.5 0  20.5 0.5 0  20.75 0.5 0  21 0.5 0  21.25 0.5 0  21.5 0.5 0  21.75 0.5 0  22 0.5 0  22.25 0.5 0  22.5 0.5 0  22.75 0.5 0  23 0.5 0  23.25 0.5 0  23.5 0.5 0  23.75 0.5 0  24 0.5 0  24.25 0.5 0  24.5 0.5 0  24.75 0.5 0  25 0.5 0  0 0.75 0  0.25 0.75 0  0.5 0.75 0  0.75 0.75 0  1 0.75 0  1.25 0.75 0  1.5 0.75 0  1.75 0.75 0  2 0.75 0  2.25 0.75 0  2.5 0.75 0  2.75 0.75 0  3 0.75 0  3.25 0.75 0  3.5 0.75 0  3.75 0.75 0  4 0.75 0  4.25 0.75 0  4.5 0.75 0  4.75 0.75 0  5 0.75 0  5.25 0.75 0  5.5 0.75 0  5.75 0.75 0  6 0.75 0  6.25 0.75 0  6.5 0.75 0  6.75 0.75 0  7 0.75 0  7.25 0.75 0  7.5 0.75 0  7.75 0.75 0  8 0.75 0  8.25 0.75 0  8.5 0.75 0  8.75 0.75 0  9 0.75 0  9.25 0.75 0  9.5 0.75 0  9.75 0.75 0  10 0.75 0  10.25 0.75 0  10.5 0.75 0  10.75 0.75 0  11 0.75 0  11.25 0.75 0  11.5 0.75 0  11.75 0.75 0  12 0.75 0  12.25 0.75 0  12.5 0.75 0  12.75 0.75 0  13 0.75 0  13.25 0.75 0  13.5 0.75 0  13.75 0.75 0  14 0.75 0  14.25 0.75 0  14.5 0.75 0  14.75 0.75 0  15 0.75 0  15.25 0.75 0  15.5 0.75 0  15.75 0.75 0  16 0.75 0  16.25 0.75 0  16.5 0.75 0  16.75 0.75 0  17 0.75 0  17.25 0.75 0  17.5 0.75 0  17.75 0.75 0  18 0.75 0  18.25 0.75 0  18.5 0.75 0  18.75 0.75 0  19 0.75 0  19.25 0.75 0  19.5 0.75 0  19.75 0.75 0  20 0.75 0  20.25 0.75 0  20.5 0.75 0  20.75 0.75 0  21 0.75 0  21.25 0.75 0  21.5 0.75 0  21.75 0.75 0  22 0.75 0  22.25 0.75 0  22.5 0.75 0  22.75 0.75 0  23 0.75 0  23.25 0.75 0  23.5 0.75 0  23.75 0.75 0  24 0.75 0  24.25 0.75 0  24.5 0.75 0  24.75 0.75 0  25 0.75 0  0 1 0  0.25 1 0  0.5 1 0  0.75 1 0  1 1 0  1.25 1 0  1.5 1 0  1.75 1 0  2 1 0  2.25 1 0  2.5 1 0  2.75 1 0  3 1 0  3.25 1 0  3.5 1 0  3.75 1 0  4 1 0  4.25 1 0  4.5 1 0  4.75 1 0  5 1 0  5.25 1 0  5.5 1 0  5.75 1 0  6 1 0  6.25 1 0  6.5 1 0  6.75 1 0  7 1 0  7.25 1 0  7.5 1 0  7.75 1 0  8 1 0  8.25 1 0  8.5 1 0  8.75 1 0  9 1 0  9.25 1 0  9.5 1 0  9.75 1 0  10 1 0  10.25 1 0  10.5 1 0  10.75 1 0  11 1 0  11.25 1 0  11.5 1 0  11.75 1 0  12 1 0  12.25 1 0  12.5 1 0  12.75 1 0  13 1 0  13.25 1 0  13.5 1 0  13.75 1 0  14 1 0  14.25 1 0  14.5 1 0  14.75 1 0  15 1 0  15.25 1 0  15.5 1 0  15.75 1 0  16 1 0  16.25 1 0  16.5 1 0  16.75 1 0  17 1 0  17.25 1 0  17.5 1 0  17.75 1 0  18 1 0  18.25 1 0  18.5 1 0  18.75 1 0  19 1 0  19.25 1 0  19.5 1 0  19.75 1 0  20 1 0  20.25 1 0  20.5 1 0  20.75 1 0  21 1 0  21.25 1 0  21.5 1 0  21.75 1 0  22 1 0  22.25 1 0  22.5 1 0  22.75 1 0  23 1 0  23.25 1 0  23.5 1 0  23.75 1 0  24 1 0  24.25 1 0  24.5 1 0  24.75 1 0  25 1 0  0 1.25 0  0.25 1.25 0  0.5 1.25 0  0.75 1.25 0  1 1.25 0  1.25 1.25 0  1.5 1.25 0  1.75 1.25 0  2 1.25 0  2.25 1.25 0  2.5 1.25 0  2.75 1.25 0  3 1.25 0  3.25 1.25 0  3.5 1.25 0  3.75 1.25 0  4 1.25 0  4.25 1.25 0  4.5 1.25 0  4.75 1.25 0  5 1.25 0  5.25 1.25 0  5.5 1.25 0  5.75 1.25 0  6 1.25 0  6.25 1.25 0  6.5 1.25 0  6.75 1.25 0  7 1.25 0  7.25 1.25 0  7.5 1.25 0  7.75 1.25 0  8 1.25 0  8.25 1.25 0  8.5 1.25 0  8.75 1.25 0  9 1.25 0  9.25 1.25 0  9.5 1.25 0  9.75 1.25 0  10 1.25 0  10.25 1.25 0  10.5 1.25 0  10.75 1.25 0  11 1.25 0  11.25 1.25 0  11.5 1.25 0  11.75 1.25 0  12 1.25 0  12.25 1.25 0  12.5 1.25 0  12.75 1.25 0  13 1.25 0  13.25 1.25 0  13.5 1.25 0  13.75 1.25 0  14 1.25 0  14.25 1.25 0  14.5 1.25 0  14.75 1.25 0  15 1.25 0  15.25 1.25 0  15.5 1.25 0  15.75 1.25 0  16 1.25 0  16.25 1.25 0  16.5 1.25 0  16.75 1.25 0  17 1.25 0  17.25 1.25 0  17.5 1.25 0  17.75 1.25 0  18 1.25 0  18.25 1.25 0  18.5 1.25 0  18.75 1.25 0  19 1.25 0  19.25 1.25 0  19.5 1.25 0  19.75 1.25 0  20 1.25 0  20.25 1.25 0  20.5 1.25 0  20.75 1.25 0  21 1.25 0  21.25 1.25 0  21.5 1.25 0  21.75 1.25 0  22 1.25 0  22.25 1.25 0  22.5 1.25 0  22.75 1.25 0  23 1.25 0  23.25 1.25 0  23.5 1.25 0  23.75 1.25 0  24 1.25 0  24.25 1.25 0  24.5 1.25 0  24.75 1.25 0  25 1.25 0  0 1.5 0  0.25 1.5 0  0.5 1.5 0  0.75 1.5 0  1 1.5 0  1.25 1.5 0  1.5 1.5 0  1.75 1.5 0  2 1.5 0  2.25 1.5 0  2.5 1.5 0  2.75 1.5 0  3 1.5 0  3.25 1.5 0  3.5 1.5 0  3.75 1.5 0  4 1.5 0  4.25 1.5 0  4.5 1.5 0  4.75 1.5 0  5 1.5 0  5.25 1.5 0  5.5 1.5 0  5.75 1.5 0  6 1.5 0  6.25 1.5 0  6.5 1.5 0  6.75 1.5 0  7 1.5 0  7.25 1.5 0  7.5 1.5 0  7.75 1.5 0  8 1.5 0  8.25 1.5 0  8.5 1.5 0  8.75 1.5 0  9 1.5 0  9.25 1.5 0  9.5 1.5 0  9.75 1.5 0  10 1.5 0  10.25 1.5 0  10.5 1.5 0  10.75 1.5 0  11 1.5 0  11.25 1.5 0  11.5 1.5 0  11.75 1.5 0  12 1.5 0  12.25 1.5 0  12.5 1.5 0  12.75 1.5 0  13 1.5 0  13.25 1.5 0  13.5 1.5 0  13.75 1.5 0  14 1.5 0  14.25 1.5 0  14.5 1.5 0  14.75 1.5 0  15 1.5 0  15.25 1.5 0  15.5 1.5 0  15.75 1.5 0  16 1.5 0  16.25 1.5 0  16.5 1.5 0  16.75 1.5 0  17 1.5 0  17.25 1.5 0  17.5 1.5 0  17.75 1.5 0  18 1.5 0  18.25 1.5 0  18.5 1.5 0  18.75 1.5 0  19 1.5 0  19.25 1.5 0  19.5 1.5 0  19.75 1.5 0  20 1.5 0  20.25 1.5 0  20.5 1.5 0  20.75 1.5 0  21 1.5 0  21.25 1.5 0  21.5 1.5 0  21.75 1.5 0  22 1.5 0  22.25 1.5 0  22.5 1.5 0  22.75 1.5 0  23 1.5 0  23.25 1.5 0  23.5 1.5 0  23.75 1.5 0  24 1.5 0  24.25 1.5 0  24.5 1.5 0  24.75 1.5 0  25 1.5 0  0 1.75 0  0.25 1.75 0  0.5 1.75 0  0.75 1.75 0  1 1.75 0  1.25 1.75 0  1.5 1.75 0  1.75 1.75 0  2 1.75 0  2.25 1.75 0  2.5 1.75 0  2.75 1.75 0  3 1.75 0  3.25 1.75 0  3.5 1.75 0  3.75 1.75 0  4 1.75 0  4.25 1.75 0  4.5 1.75 0  4.75 1.75 0  5 1.75 0  5.25 1.75 0  5.5 1.75 0  5.75 1.75 0  6 1.75 0  6.25 1.75 0  6.5 1.75 0  6.75 1.75 0  7 1.75 0  7.25 1.75 0  7.5 1.75 0  7.75 1.75 0  8 1.75 0  8.25 1.75 0  8.5 1.75 0  8.75 1.75 0  9 1.75 0  9.25 1.75 0  9.5 1.75 0  9.75 1.75 0  10 1.75 0  10.25 1.75 0  10.5 1.75 0  10.75 1.75 0  11 1.75 0  11.25 1.75 0  11.5 1.75 0  11.75 1.75 0  12 1.75 0  12.25 1.75 0  12.5 1.75 0  12.75 1.75 0  13 1.75 0  13.25 1.75 0  13.5 1.75 0  13.75 1.75 0  14 1.75 0  14.25 1.75 0  14.5 1.75 0  14.75 1.75 0  15 1.75 0  15.25 1.75 0  15.5 1.75 0  15.75 1.75 0  16 1.75 0  16.25 1.75 0  16.5 1.75 0  16.75 1.75 0  17 1.75 0  17.25 1.75 0  17.5 1.75 0  17.75 1.75 0  18 1.75 0  18.25 1.75 0  18.5 1.75 0  18.75 1.75 0  19 1.75 0  19.25 1.75 0  19.5 1.75 0  19.75 1.75 0  20 1.75 0  20.25 1.75 0  20.5 1.75 0  20.75 1.75 0  21 1.75 0  21.25 1.75 0  21.5 1.75 0  21.75 1.75 0  22 1.75 0  22.25 1.75 0  22.5 1.75 0  22.75 1.75 0  23 1.75 0  23.25 1.75 0  23.5 1.75 0  23.75 1.75 0  24 1.75 0  24.25 1.75 0  24.5 1.75 0  24.75 1.75 0  25 1.75 0  0 2 0  0.25 2 0  0.5 2 0  0.75 2 0  1 2 0  1.25 2 0  1.5 2 0  1.75 2 0  2 2 0  2.25 2 0  2.5 2 0  2.75 2 0  3 2 0  3.25 2 0  3.5 2 0  3.75 2 0  4 2 0  4.25 2 0  4.5 2 0  4.75 2 0  5 2 0  5.25 2 0  5.5 2 0  5.75 2 0  6 2 0  6.25 2 0  6.5 2 0  6.75 2 0  7 2 0  7.25 2 0  7.5 2 0  7.75 2 0  8 2 0  8.25 2 0  8.5 2 0  8.75 2 0  9 2 0  9.25 2 0  9.5 2 0  9.75 2 0  10 2 0  10.25 2 0  10.5 2 0  10.75 2 0  11 2 0  11.25 2 0 
[...]
<PointData  Scalars="f_23"> 
<DataArray  type="Float64"  Name="f_23"  format="ascii">5.6182384320068379e-01  5.5891285958009673e-01  5.5241815056808474e-01  5.4197761162730196e-01  5.2743761933958011e-01  5.0869906956936362e-01  4.8569345909941664e-01  4.5839305711230927e-01  4.2683256985182472e-01  3.9113514901655533e-01  3.5153847742633720e-01  3.0841675681956282e-01  2.6229419468881804e-01  2.1384592530035598e-01  1.6388359841389377e-01  1.1332514322827357e-01  6.3151068456308038e-02  1.4352360627513694e-02  -3.2123226521343008e-02  -7.5419505290814523e-02  -1.1480922759010601e-01  -1.4971744390416664e-01  -1.7973065072749703e-01  -2.0459393662375017e-01  -2.2419979191974282e-01  -2.3857262647108174e-01  -2.4785252992970150e-01  -2.5228075160728081e-01  -2.5218812493949322e-01  -2.4798649091394401e-01  -2.4016226123470558e-01  -2.2927069466950717e-01  -2.1592926594389478e-01  -2.0080866667288855e-01  -1.8462043182705934e-01  -1.6810083206982551e-01  -1.5199137768942719e-01  -1.3701689783387663e-01  -1.2386256551717940e-01  -1.1315136748837976e-01  -1.0542337912873269e-01  -1.0111788162462157e-01  -1.0055897830328457e-01  -1.0394505406775988e-01  -1.1134225662683658e-01  -1.2268217032186991e-01  -1.3776394045405488e-01  -1.5626117705622042e-01  -1.7773390310893653e-01  -2.0164553293264162e-01  -2.2738436736210202e-01  -2.5428845809322420e-01  -2.8167207938888666e-01  -3.0885162809706262e-01  -3.3516869010283767e-01  -3.6000831137546735e-01  -3.8281113795520005e-01  -4.0307890291178905e-01  -4.2037356979011820e-01  -4.3431114583679442e-01  -4.4455167100381043e-01  -4.5078715909570466e-01  -4.5272936093708810e-01  -4.5009920822400912e-01  -4.4261974643989394e-01  -4.3001430650809397e-01  -4.1201157276552142e-01  -3.8835898817653747e-01  -3.5884544326184642e-01  -3.2333323761662103e-01  -2.8179773412827142e-01  -2.3437095107271949e-01  -1.8138285360010889e-01  -1.2339199527407059e-01  -6.1196416520901374e-02  4.1826944186465001e-03  7.1547726541625931e-02  1.3959848943824565e-01  2.0702324494065397e-01  2.7259243396068966e-01  3.3523990527236203e-01  3.9411987004056664e-01  4.4863395721215166e-01  4.9842936525639775e-01  5.4337415875989437e-01  5.8351821810167692e-01  6.1904831779463831e-01  6.5024410725883608e-01  6.7743939393842267e-01  7.0099086280025102e-01  7.2125463017447056e-01  7.3856993225631740e-01  7.5324870592924764e-01  7.6556967184892966e-01  7.7577561545463136e-01  7.8407275032721979e-01  7.9063123828150594e-01  7.9558601202629509e-01  7.9903667496880382e-01  8.0104308058237428e-01  8.0160281927138399e-01  5.5766486218213429e-01  5.5538440386924159e-01  5.4903050312086354e-01  5.3861154012496792e-01  5.2405853126855062e-01  5.0529560138333551e-01  4.8226356877895304e-01  4.5494078755882356e-01  4.2336730581511600e-01  3.8767134518149504e-01  3.4809526207983044e-01  3.0501720583212938e-01  2.5896422913096517e-01  2.1061289126950875e-01  1.6077466880751254e-01  1.1036572998714406e-01  6.0363438787501243e-02  1.1754611525697864e-02  -3.4517750701445783e-02  -7.7602345171614462e-02  -1.1677654898062440e-01  -1.5146948417792461e-01  -1.8127098390645197e-01  -2.0592866359459458e-01  -2.2533674381742619e-01  -2.3952064564614745e-01  -2.4862086896489127e-01  -2.5287860953110314e-01  -2.5262432268955193e-01  -2.4826927581153144e-01  -2.4029922251222860e-01  -2.2926876810040461e-01  -2.1579480422085659e-01  -2.0054755232824911e-01  -1.8423821061776507e-01  -1.6760284690928398e-01  -1.5138288690830670e-01  -1.3630316728627653e-01  -1.2304893171662390e-01  -1.1224327748064558e-01  -1.0442642020047545e-01  -1.0003781787952636e-01  -9.9401809772774338e-02  -1.0271710677409010e-01  -1.1005029995511884e-01  -1.2133354386211054e-01  -1.3636665993913830e-01  -1.5482398220785110e-01  -1.7626621232283640e-01  -2.0015728196848806e-01  -2.2588572984557428e-01  -2.5278947005829977e-01  -2.8018221185911157e-01  -3.0737936468051957e-01  -3.3372116714796718e-01  -3.5859106669111102e-01  -3.8142799440219499e-01  -4.0173199128913745e-01  -4.1906347705830399e-01  -4.3303716345023913e-01  -4.4331211477254195e-01  -4.4957973495514941e-01  -4.5155155723760199e-01  -4.4894870122181318e-01  -4.4149480848210204e-01  -4.2891420365175781e-01  -4.1093692914629443e-01  -3.8731207908206922e-01  -3.5783036111686745e-01  -3.2235586220774337e-01  -2.8086544110147882e-01  -2.3349202228685065e-01  -1.8056561468145832e-01  -1.2264379084067477e-01  -6.0522614283209042e-02  4.7794433419288546e-03  7.2067784681356675e-02  1.4004501885513104e-01  2.0740156539485305e-01  2.7290915624907847e-01  3.3550207768573115e-01  3.9433432091971665e-01  4.4880691103533654e-01  4.9856630868007051e-01  5.4347987436067302e-01  5.8359689395765968e-01  6.1910366416887108e-01  6.5027944503756518e-01  6.7745770707883235e-01  7.0099482278960379e-01  7.2124660563354559e-01  7.3855199557423490e-01  7.5322264540545636e-01  7.6553701541658092e-01  7.7573767372214808e-01  7.8403069939702152e-01  7.9058631302239257e-01  7.9554008188877268e-01  7.9899434880153075e-01  8.0102055074251699e-01  8.0166851288460328e-01  5.4737670009978523e-01  5.4523457535324149e-01  5.3894273763321621e-01  5.2851260339380368e-01  5.1390439388959885e-01  4.9506355902830335e-01  4.7194725111086488e-01  4.4454871116124095e-01  4.1292291670625936e-01  3.7721323076657898e-01  3.3767677615360864e-01  2.9470506120456752e-01  2.4883584541807036e-01  2.0075252581288916e-01  1.5126861252863025e-01  1.0129707500056678e-01  5.1807060649170331e-02  3.7730094233276797e-03  -4.1877255736100759e-02  -8.4308802509456410e-02  -1.2281499276392295e-01  -1.5683924432372923e-01  -1.8598311875920942e-01  -2.1000298173050883e-01  -2.2879883404995208e-01  -2.4239923007574843e-01  -2.5094567102535725e-01  -2.5467881537247633e-01  -2.5392762501823618e-01  -2.4910142851725683e-01  -2.4068399925939324e-01  -2.2922820315395348e-01  -2.1534959397284056e-01  -1.9971750759410578e-01  -1.8304267038210403e-01  -1.6606099182720302e-01  -1.4951392293612234e-01  -1.3412638261853868e-01  -1.2058365907917006e-01  -1.0950881400085558e-01  -1.0144196485040267e-01  -9.6822480276867379e-02  -9.5974724952900936e-02  -9.9097661925241082e-02  -1.0625844643366990e-01  -1.1739013751272478e-01  -1.3229375137328928e-01  -1.5064497182036254e-01  -1.7200579583073891e-01  -1.9584114106101769e-01  -2.2153996477364285e-01  -2.4843981827276085e-01  -2.7585313846217069e-01  -3.0309313653326003e-01  -3.2949702693858535e-01  -3.5444460600028987e-01  -3.7737079150656300e-01  -3.9777153944347421e-01  -4.1520339198502970e-01  -4.2927763189946805e-01  -4.3965053237700324e-01  -4.4601148022524995e-01  -4.4807085554956078e-01  -4.4554954277413289e-01  -4.3817189206966406e-01  -4.2566387919541548e-01  -4.0775810319477679e-01  -3.8420702824338043e-01  -3.5480537124423389e-01  -3.1942158345624794e-01  -2.7803683313903244e-01  -2.3078777593868036e-01  -1.7800699028220671e-01  -1.2025291319169154e-01  -5.8320393602040672e-02  6.7754731615965198e-03  7.3845353357403581e-02  1.4159840282698344e-01  2.0873206037288292e-01  2.7402471333416945e-01  3.3641625172296602e-01  3.9506479225739977e-01  4.4937386862779144e-01  4.9899093625493418e-01  5.4378309635814837e-01  5.8379844928978242e-01  6.1922150631453643e-01  6.5032942440131503e-01  6.7745347318708082e-01  7.0094788255832829e-01  7.2116648224606794e-01  7.3844644497496426e-01  7.5309790091790696e-01  7.6539804466168748e-01  7.7558844747007827e-01  7.8387449488025551e-01  7.9042611811176389e-01  7.9537925556908395e-01  7.9883781597127546e-01  8.0087645717825007e-01  8.0154517281181337e-01  5.3048423726532590e-01  5.2836199816120866e-01  5.2205946978927897e-01  5.1156883100287920e-01  4.9685902717378916e-01  4.7789237072676893e-01  4.5464577619264934e-01  4.2713425301447216e-01  3.9543622340350754e-01  3.5971941527591411e-01  3.2026489270732061e-01  2.7748584433688284e-01  2.3193734988410294e-01  1.8431374510542528e-01  1.3543155077763930e-01  8.6198111981100292e-02  3.7568675463645430e-02  -9.5030669798975183e-03  -5.4114623562962427e-02  -9.5458289288542428e-02  -1.3285391552406245e-01  -1.6576850091630391e-01  -1.9382282693548208e-01  -2.1678745665700494e-01  -2.3457161161134807e-01  -2.4720866456795809e-01  -2.5484142546372757e-01  -2.5770936876623113e-01  -2.5613876936310764e-01  -2.5053562548463426e-01  -2.4138040754361470e-01  -2.2922316296640069e-01  -2.1467735678978855e-01  -1.9841102110029013e-01  -1.8113426671288024e-01  -1.6358287799661131e-01  -1.4649843051373487e-01  -1.3060599186203020e-01  -1.1659086201963335e-01  -1.0507591311525682e-01  -9.6600913370963437e-02  -9.1604855585608505e-02  -9.0411891198560385e-02  -9.3221129056902580e-02  -1.0010037963856599e-01  -1.1098392367185453e-01  -1.2567449705733610e-01  -1.4384979804886394e-01  -1.6507381245619310e-01  -1.8881302751396575e-01  -2.1445714746400474e-01  -2.4134330613907565e-01  -2.6878214175800297e-01  -2.9608363552448780e-01  -3.2258046756863146e-01  -3.4764687776566150e-01  -3.7071159611560234e-01  -3.9126420023042496e-01  -4.0885509760796729e-01  -4.2309006462032306e-01  -4.3362080673396708e-01  -4.4013331184486326e-01  -4.4233588739239543e-01  -4.3994877000138183e-01  -4.3269713915936003e-01  -4.2030928699159503e-01  -4.0252157418023660e-01  -3.7909155333536843e-01  -3.4982012302162901e-01  -3.1458261729783488e-01  -2.7336720514907203e-01  -2.2631688718240731e-01  -1.7376902426669502e-01  -1.1628436130750254e-01  -5.4656851206538647e-02  1.0102852087606098e-02  7.6813201942712628e-02  1.4419371543977111e-01  2.1095354835841493e-01  2.7588274971756038e-01  3.3793151305616032e-01  3.9626595377304547e-01  4.5029483377685386e-01  4.9966806924661672e-01  5.4425281255438851e-01  5.8409536214068780e-01  6.1937718368885475e-01  6.5037170219466567e-01  6.7740621732816808e-01  7.0083107401571787e-01  7.2099650947370297e-01  7.3823651125896061e-01  7.5285848093160290e-01  7.6513735009557682e-01  7.7531288418183641e-01  7.8358911366300010e-01  7.9013507566675234e-01  7.9508629281897070e-01  7.9854664261991770e-01  8.0059042135761127e-01  8.0126416585279281e-01  5.0666682726366297e-01  5.0453258561967851e-01  4.9817853043034627e-01  4.8759003256635491e-01  4.7274414504134771e-01  4.5362082847532953e-01  4.3022074362504037e-01  4.0258697922176440e-01  3.7082903706389886e-01  3.3514711122204738e-01  2.9585396774850409e-01  2.5339108880481731e-01  2.0833556852167576e-01  1.6139481525098787e-01  1.1338753820614482e-01  6.5211624069993410e-02  1.7801894490340281e-02  -2.7917262401160738e-02  -7.1078386633292023e-02  -1.1091088845041773e-01  -1.4677031109653324e-01  -1.7815508454078927e-01  -2.0471131221705108e-01  -2.2622798452592241e-01  -2.4262600737476431e-01  -2.5394453669530342e-01  -2.6032751280440858e-01  -2.6201228514773711e-01  -2.5932109459035591e-01  -2.5265515691052709e-01  -2.4249030919324852e-01  -2.2937271745579668e-01  -2.1391302824758701e-01  -1.9677756781925015e-01  -1.7867569562594190e-01  -1.6034310440030022e-01  -1.4252158829709097e-01  -1.2593642108093342e-01  -1.1127286928617183e-01  -9.9153444246503034e-02  -9.0117289540293077e-02  -8.4602702571666688e-02  -8.2933341421722540e-02  -8.5308308127291108e-02  -9.1796116048231624e-02  -1.0233255551674572e-01  -1.1672260553364514e-01  -1.3464668351656023e-01  -1.5567155041598310e-01  -1.7926599818975344e-01  -2.0482101576536366e-01  -2.3167352343253184e-01  -2.5913212749135184e-01  -2.8650285620322880e-01  -3.1311264993432725e-01  -3.3832856963188229e-01  -3.6157123050866402e-01  -3.8232174242282618e-01  -4.0012227878663009e-01  -4.1457114549370799e-01  -4.2531377768754441e-01  -4.3203142397043082e-01  -4.3442941531628826e-01  -4.3222692376942351e-01  -4.2515005827217778e-01  -4.1293005565800484e-01  -3.9530818589178118e-01  -3.7204872156630409e-01  -3.4296078539403591e-01  -3.0792892306103781e-01  -2.6695073038257994e-01  -2.2017781801251030e-01  -1.6795411759037476e-01  -1.1084365584358158e-01  -4.9639350110448864e-02  1.4654024874980512e-02  8.0865447093310283e-02  1.4772861495573941e-01  2.1396888920706678e-01  2.7839260266849269e-01  3.3996446975181471e-01  3.9786198448244564e-01  4.5150142660380466e-01  5.0053631716621616e-01  5.4483396913884019e-01  5.8443817022085109e-01  6.1952607043268215e-01  6.5036577721744981e-01  6.7727892215874963e-01  7.0061030249053835e-01  7.2070503002876218e-01  7.3789255410503074e-01  7.5247639111601405e-01  7.6472824272247619e-01  7.7488526628877286e-01  7.8314945597189956e-01  7.8968832203691008e-01  7.9463627258217695e-01  7.9809627295558982e-01  8.0014143534551296e-01  8.0081608302962326e-01  4.7562810963783764e-01  4.7347497938284461e-01  4.6705291886396000e-01  4.5635026802170142e-01  4.4135678487859070e-01  4.2207397122977958e-01  3.9853116362640678e-01  3.7080559017259090e-01  3.3904451883228920e-01  3.0348723415929912e-01  2.6448402701549228e-01  2.2250897867110278e-01  1.7816337795140763e-01  1.3216735622214931e-01  8.5338813209201919e-02  3.8560738596670037e-02  -7.2598383204955114e-03  -5.1236396352904647e-02  -9.2545439059351295e-02  -1.3046200435009825e-01  -1.6438478398288303e-01  -1.9384962127973876e-01  -2.1853226416644594e-01  -2.3824281717839121e-01  -2.5291510362886888e-01  -2.6259412288526113e-01  -2.6742415823716609e-01  -2.6763912393353295e-01  -2.6355568701390508e-01  -2.5556875240801591e-01  -2.4414818435386335e-01  -2.2983522608795284e-01  -2.1323700465241227e-01  -1.9501776166547935e-01  -1.7588598256806959e-01  -1.5657730538120893e-01  -1.3783383312850075e-01  -1.2038109466379712e-01  -1.0490426540360896e-01  -9.2025307257903796e-02  -8.2282439030760851e-02  -7.6112908630595374e-02  -7.3839555473164162e-02  -7.5661268987667105e-02  -8.1647259164594657e-02  -9.1735071544731858e-02  -1.0573243732120952e-01  -1.2332322976797273e-01  -1.4407786657514088e-01  -1.6746835029164522e-01  -1.9288774245480844e-01  -2.1967327763668679e-01  -2.4713167898119562e-01  -2.7456471575743047e-01  -3.0129280783625079e-01  -3.2667462057126889e-01  -3.5012109188773810e-01  -3.7110308215393689e-01  -3.8915267436989742e-01  -4.0385891790143752e-01  -4.1485939292718382e-01  -4.2182933435417719e-01  -4.2447021568792759e-01  -4.2249971452677448e-01  -4.1564492449483181e-01  -4.0364057830487110e-01  -3.8623388789195717e-01  -3.6319731428181884e-01  -3.3435002190951452e-01  -2.9958779643250816e-01  -2.5891970190442237e-01  -2.1250775844693895e-01  -1.6070373206242347e-01  -1.0407536586627943e-01  -4.3413912659541448e-02  2.0283535598172326e-02  8.5859396135011562e-02  1.5206532121300068e-01  2.1764709826251952e-01  2.8143152953583533e-01  3.4240153836888593e-01  3.9974883990882726e-01  4.5289904659649521e-01  5.0151006049639102e-01  5.4544921829598281e-01  5.8475695489845159e-01  6.1960479205073993e-01  6.5025395515367757e-01  6.7701876901750679e-01  7.0023689804932099e-01  7.2024687724106318e-01  7.3737234083838676e-01  7.5191182927211098e-01  7.6413290048854154e-01  7.7426934379568224e-01  7.8252047710377715e-01  7.8905172378547139e-01  7.9399586607838302e-01  7.9745452978537579e-01  7.9949955098766878e-01  8.0017390944843458e-01  4.3710890883386261e-01  4.3494113013262781e-01  4.2845449026837917e-01  4.1764647355503942e-01  4.0252463343203770e-01  3.8311679391117459e-01  3.5948605411294632e-01  3.3174918074959858e-01  3.0009651869963794e-01  2.6481107338590104e-01  2.2628397904861533e-01  1.8502337014148801e-01  1.4165394950143920e-01  9.6905449087699005e-02  5.1589689122594727e-02  6.5678187374304886e-03  -3.7288868316146237e-02  -7.9139906245493677e-02  -1.1821348741987216e-01  -1.5383697831162566e-01  -1.8545753779175717e-01  -2.1265221203694526e-01  -2.3512868876836565e-01  -2.5271915512909221e-01  -2.6537024047054042e-01  -2.7313187722149862e-01  -2.7614726268783779e-01  -2.7464518548269379e-01  -2.6893500654522207e-01  -2.5940371969476755e-01  -2.4651387131345476e-01  -2.3080076247886472e-01  -2.1286732503793226e-01  -1.9337535403318545e-01  -1.7303234376560003e-01  -1.5257391118167349e-01  -1.3274255084754036e-01  -1.1426408751261488e-01  -9.7823540549042895e-02  -8.4042125794579328e-02  -7.3456824290414918e-02  -6.6503457689950904e-02  -6.3503685311698477e-02  -6.4655928560768572e-02  -7.0030030240355756e-02  -7.9565483281901467e-02  -9.3073249076695355e-02  -1.1024140692019135e-01  -1.3064499357635107e-01  -1.5376029478770378e-01  -1.7898349574148301e-01  -2.0565303144882072e-01  -2.3307433045857640e-01  -2.6054509349657384e-01  -2.8737896048868017e-01  -3.1292549672690095e-01  -3.3658487286543498e-01  -3.5781632756910797e-01  -3.7614032965387811e-01  -3.9113513682589596e-01  -4.0242906183289334e-01  -4.0969015261215530e-01  -4.1261518366744532e-01  -4.1091989431198200e-01  -4.0433235541013451e-01  -3.9259123517212685e-01  -3.7545055416616258e-01  -3.5269219963012499e-01  -3.2414688761325638e-01  -2.8972327707303830e-01  -2.4944345704245180e-01  -2.0348109466663092e-01  -1.5219644766443383e-01  -9.6160814220593249e-02  -3.6162639374259842e-02  2.6810829236968575e-02  9.1618505064122044e-02  1.5703366722794881e-01  2.2182642707165640e-01  2.8484774940154622e-01  3.4510187587526597e-01  4.0179700588593881e-01  4.5436938905071395e-01  5.0248168598182541e-01  5.4600084775215174e-01  5.8496295992191705e-01  6.1953254509317035e-01  6.4996239345640894e-01  6.7655793988234669e-01  6.9964820974751862e-01  7.1956379697831530e-01  7.3662132943858771e-01  7.5111335932772982e-01  7.6330245708620681e-01  7.7341834813561849e-01  7.8165710154060375e-01  7.8818158273360228e-01  7.9312257385612461e-01  7.9658012220073271e-01  7.9862479324273961e-01  7.9929859347979559e-01  3.9094658346050593e-01  3.8877611313022992e-01  3.8224714365820583e-01  3.7137051160603879e-01  3.5617594021840865e-01  3.3672194203766392e-01  3.1310969289612289e-01  2.8549951893020953e-01  2.5412812994122264e-01  2.1932427958782269e-01  1.8152022515942032e-01  1.4125635940135176e-01  9.9176855110456652e-02  5.6015174017997250e-02  1.2569759951314957e-02  -3.0328105509946475e-02  -7.1850857761849588e-02  -1.1121135238483636e-01  -1.4769549190387682e-01  -1.8068746224549379e-01  -2.0968579106864990e-01  -2.3431016083675532e-01  -2.5430039841182478e-01  -2.6951002234242022e-01  -2.7989705140762683e-01  -2.8551452755387002e-01  -2.8650255137076713e-01  -2.8308276693185691e-01  -2.7555534251662522e-01  -2.6429771108719474e-01  -2.4976375755684369e-01  -2.3248183700828470e-01  -2.1305001945304555e-01  -1.9212728652989436e-01  -1.7042000733931123e-01  -1.4866378939641076e-01  -1.2760158256659862e-01  -1.0795953853084481e-01  -9.0422457010435275e-02  -7.5610620682029617e-02  -6.4059470740696331e-02  -5.6203029114861344e-02  -5.2361401033720917e-02  -5.2732251609060150e-02  -5.7385941529305678e-02  -6.6264044120279350e-02  -7.9181180180756511e-02  -9.5830371708937490e-02  -1.1579228646509380e-01  -1.3854870420919732e-01  -1.6350022960058344e-01  -1.8998774132764173e-01  -2.1731642241430310e-01  -2.4478063645793829e-01  -2.7168757179226416e-01  -2.9737758509066597e-01  -3.2123955613690075e-01  -3.4272023533199464e-01  -3.6132737703455842e-01  -3.7662724277621606e-01  -3.8823770183140338e-01  -3.9581858943411419e-01  -3.9906120667941947e-01  -3.9767890570733100e-01  -3.9140065521665995e-01  -3.7996936019973693e-01  -3.6314650722038694e-01  -3.4072435864345207e-01  -3.1254631396049759e-01  -2.7853506565654496e-01  -2.3872672058502065e-01  -1.9330719655749415e-01  -1.4264523819481181e-01  -8.7314909293713161e-02  -2.8100185040715105e-02  3.4024028944033675e-02  9.7936299684184144e-02  1.6243505422500262e-01  2.2631824769546122e-01  2.8846416235928185e-01  3.4790085401232362e-01  4.0385466584106378e-01  4.5577326292320131e-01  5.0332403303568962e-01  5.4637285277419778e-01  5.8495030223562194e-01  6.1921247228615550e-01  6.4940217430838487e-01  6.7581442572388306e-01  6.9876818770868043e-01  7.1858484008908718e-01  7.3557290446107793e-01  7.5001801862045236e-01  7.6217700068575267e-01  7.7227488973916225e-01  7.8050400578934720e-01  7.8702426297891015e-01  7.9196415354326388e-01  7.9542197575372131e-01  7.9746700283807526e-01  7.9814039082747712e-01  3.3715506936312895e-01  3.3500022280692449e-01  3.28469802