<?xml version="1.0"?>
<VTKFile type="UnstructuredGrid"  version="0.1"  >
<UnstructuredGrid>
<Piece  NumberOfPoints="10201" NumberOfCells="20000">
<Points>
<DataArray  type="Float64"  NumberOfComponents="3"  format="ascii">0 0 0  0.25 0 0  0.5 0 0  0.75 0 0  1 0 0  1.25 0 0  1.5 0 0  1.75 0 0  2 0 0  2.25 0 0  2.5 0 0  2.75 0 0  3 0 0  3.25 0 0  3.5 0 0  3.75 0 0  4 0 0  4.25 0 0  4.5 0 0  4.75 0 0  5 0 0  5.25 0 0  5.5 0 0  5.75 0 0  6 0 0  6.25 0 0  6.5 0 0  6.75 0 0  7 0 0  7.25 0 0  7.5 0 0  7.75 0 0  8 0 0  8.25 0 0  8.5 0 0  8.75 0 0  9 0 0  9.25 0 0  9.5 0 0  9.75 0 0  10 0 0  10.25 0 0  10.5 0 0  10.75 0 0  11 0 0  11.25 0 0  11.5 0 0  11.75 0 0  12 0 0  12.25 0 0  12.5 0 0  12.75 0 0  13 0 0  13.25 0 0  13.5 0 0  13.75 0 0  14 0 0  14.25 0 0  14.5 0 0  14.75 0 0  15 0 0  15.25 0 0  15.5 0 0  15.75 0 0  16 0 0  16.25 0 0  16.5 0 0  16.75 0 0  17 0 0  17.25 0 0  17.5 0 0  17.75 0 0  18 0 0  18.25 0 0  18.5 0 0  18.75 0 0  19 0 0  19.25 0 0  19.5 0 0  19.75 0 0  20 0 0  20.25 0 0  20.5 0 0  20.75 0 0  21 0 0  21.25 0 0  21.5 0 0  21.75 0 0  22 0 0  22.25 0 0  22.5 0 0  22.75 0 0  23 0 0  23.25 0 0  23.5 0 0  23.75 0 0  24 0 0  24.25 0 0  24.5 0 0  24.75 0 0  25 0 0  0 0.25 0  0.25 0.25 0  0.5 0.25 0  0.75 0.25 0  1 0.25 0  1.25 0.25 0  1.5 0.25 0  1.75 0.25 0  2 0.25 0  2.25 0.25 0  2.5 0.25 0  2.75 0.25 0  3 0.25 0  3.25 0.25 0  3.5 0.25 0  3.75 0.25 0  4 0.25 0  4.25 0.25 0  4.5 0.25 0  4.75 0.25 0  5 0.25 0  5.25 0.25 0  5.5 0.25 0  5.75 0.25 0  6 0.25 0  6.25 0.25 0  6.5 0.25 0  6.75 0.25 0  7 0.25 0  7.25 0.25 0  7.5 0.25 0  7.75 0.25 0  8 0.25 0  8.25 0.25 0  8.5 0.25 0  8.75 0.25 0  9 0.25 0  9.25 0.25 0  9.5 0.25 0  9.75 0.25 0  10 0.25 0  10.25 0.25 0  10.5 0.25 0  10.75 0.25 0  11 0.25 0  11.25 0.25 0  11.5 0.25 0  11.75 0.25 0  12 0.25 0  12.25 0.25 0  12.5 0.25 0  12.75 0.25 0  13 0.25 0  13.25 0.25 0  13.5 0.25 0  13.75 0.25 0  14 0.25 0  14.25 0.25 0  14.5 0.25 0  14.75 0.25 0  15 0.25 0  15.25 0.25 0  15.5 0.25 0  15.75 0.25 0  16 0.25 0  16.25 0.25 0  16.5 0.25 0  16.75 0.25 0  17 0.25 0  17.25 0.25 0  17.5 0.25 0  17.75 0.25 0  18 0.25 0  18.25 0.25 0  18.5 0.25 0  18.75 0.25 0  19 0.25 0  19.25 0.25 0  19.5 0.25 0  19.75 0.25 0  20 0.25 0  20.25 0.25 0  20.5 0.25 0  20.75 0.25 0  21 0.25 0  21.25 0.25 0  21.5 0.25 0  21.75 0.25 0  22 0.25 0  22.25 0.25 0  22.5 0.25 0  22.75 0.25 0  23 0.25 0  23.25 0.25 0  23.5 0.25 0  23.75 0.25 0  24 0.25 0  24.25 0.25 0  24.5 0.25 0  24.75 0.25 0  25 0.25 0  0 0.5 0  0.25 0.5 0  0.5 0.5 0  0.75 0.5 0  1 0.5 0  1.25 0.5 0  1.5 0.5 0  1.75 0.5 0  2 0.5 0  2.25 0.5 0  2.5 0.5 0  2.75 0.5 0  3 0.5 0  3.25 0.5 0  3.5 0.5 0  3.75 0.5 0  4 0.5 0  4.25 0.5 0  4.5 0.5 0  4.75 0.5 0  5 0.5 0  5.25 0.5 0  5.5 0.5 0  5.75 0.5 0  6 0.5 0  6.25 0.5 0  6.5 0.5 0  6.75 0.5 0  7 0.5 0  7.25 0.5 0  7.5 0.5 0  7.75 0.5 0  8 0.5 0  8.25 0.5 0  8.5 0.5 0  8.75 0.5 0  9 0.5 0  9.25 0.5 0  9.5 0.5 0  9.75 0.5 0  10 0.5 0  10.25 0.5 0  10.5 0.5 0  10.75 0.5 0  11 0.5 0  11.25 0.5 0  11.5 0.5 0  11.75 0.5 0  12 0.5 0  12.25 0.5 0  12.5 0.5 0  12.75 0.5 0  13 0.5 0  13.25 0.5 0  13.5 0.5 0  13.75 0.5 0  14 0.5 0  14.25 0.5 0  14.5 0.5 0  14.75 0.5 0  15 0.5 0  15.25 0.5 0  15.5 0.5 0  15.75 0.5 0  16 0.5 0  16.25 0.5 0  16.5 0.5 0  16.75 0.5 0  17 0.5 0  17.25 0.5 0  17.5 0.5 0  17.75 0.5 0  18 0.5 0  18.25 0.5 0  18.5 0.5 0  18.75 0.5 0  19 0.5 0  19.25 0.5 0  19.5 0.5 0  19.75 0.5 0  20 0.5 0  20.25 0.5 0  20.5 0.5 0  20.75 0.5 0  21 0.5 0  21.25 0.5 0  21.5 0.5 0  21.75 0.5 0  22 0.5 0  22.25 0.5 0  22.5 0.5 0  22.75 0.5 0  23 0.5 0  23.25 0.5 0  23.5 0.5 0  23.75 0.5 0  24 0.5 0  24.25 0.5 0  24.5 0.5 0  24.75 0.5 0  25 0.5 0  0 0.75 0  0.25 0.75 0  0.5 0.75 0  0.75 0.75 0  1 0.75 0  1.25 0.75 0  1.5 0.75 0  1.75 0.75 0  2 0.75 0  2.25 0.75 0  2.5 0.75 0  2.75 0.75 0  3 0.75 0  3.25 0.75 0  3.5 0.75 0  3.75 0.75 0  4 0.75 0  4.25 0.75 0  4.5 0.75 0  4.75 0.75 0  5 0.75 0  5.25 0.75 0  5.5 0.75 0  5.75 0.75 0  6 0.75 0  6.25 0.75 0  6.5 0.75 0  6.75 0.75 0  7 0.75 0  7.25 0.75 0  7.5 0.75 0  7.75 0.75 0  8 0.75 0  8.25 0.75 0  8.5 0.75 0  8.75 0.75 0  9 0.75 0  9.25 0.75 0  9.5 0.75 0  9.75 0.75 0  10 0.75 0  10.25 0.75 0  10.5 0.75 0  10.75 0.75 0  11 0.75 0  11.25 0.75 0  11.5 0.75 0  11.75 0.75 0  12 0.75 0  12.25 0.75 0  12.5 0.75 0  12.75 0.75 0  13 0.75 0  13.25 0.75 0  13.5 0.75 0  13.75 0.75 0  14 0.75 0  14.25 0.75 0  14.5 0.75 0  14.75 0.75 0  15 0.75 0  15.25 0.75 0  15.5 0.75 0  15.75 0.75 0  16 0.75 0  16.25 0.75 0  16.5 0.75 0  16.75 0.75 0  17 0.75 0  17.25 0.75 0  17.5 0.75 0  17.75 0.75 0  18 0.75 0  18.25 0.75 0  18.5 0.75 0  18.75 0.75 0  19 0.75 0  19.25 0.75 0  19.5 0.75 0  19.75 0.75 0  20 0.75 0  20.25 0.75 0  20.5 0.75 0  20.75 0.75 0  21 0.75 0  21.25 0.75 0  21.5 0.75 0  21.75 0.75 0  22 0.75 0  22.25 0.75 0  22.5 0.75 0  22.75 0.75 0  23 0.75 0  23.25 0.75 0  23.5 0.75 0  23.75 0.75 0  24 0.75 0  24.25 0.75 0  24.5 0.75 0  24.75 0.75 0  25 0.75 0  0 1 0  0.25 1 0  0.5 1 0  0.75 1 0  1 1 0  1.25 1 0  1.5 1 0  1.75 1 0  2 1 0  2.25 1 0  2.5 1 0  2.75 1 0  3 1 0  3.25 1 0  3.5 1 0  3.75 1 0  4 1 0  4.25 1 0  4.5 1 0  4.75 1 0  5 1 0  5.25 1 0  5.5 1 0  5.75 1 0  6 1 0  6.25 1 0  6.5 1 0  6.75 1 0  7 1 0  7.25 1 0  7.5 1 0  7.75 1 0  8 1 0  8.25 1 0  8.5 1 0  8.75 1 0  9 1 0  9.25 1 0  9.5 1 0  9.75 1 0  10 1 0  10.25 1 0  10.5 1 0  10.75 1 0  11 1 0  11.25 1 0  11.5 1 0  11.75 1 0  12 1 0  12.25 1 0  12.5 1 0  12.75 1 0  13 1 0  13.25 1 0  13.5 1 0  13.75 1 0  14 1 0  14.25 1 0  14.5 1 0  14.75 1 0  15 1 0  15.25 1 0  15.5 1 0  15.75 1 0  16 1 0  16.25 1 0  16.5 1 0  16.75 1 0  17 1 0  17.25 1 0  17.5 1 0  17.75 1 0  18 1 0  18.25 1 0  18.5 1 0  18.75 1 0  19 1 0  19.25 1 0  19.5 1 0  19.75 1 0  20 1 0  20.25 1 0  20.5 1 0  20.75 1 0  21 1 0  21.25 1 0  21.5 1 0  21.75 1 0  22 1 0  22.25 1 0  22.5 1 0  22.75 1 0  23 1 0  23.25 1 0  23.5 1 0  23.75 1 0  24 1 0  24.25 1 0  24.5 1 0  24.75 1 0  25 1 0  0 1.25 0  0.25 1.25 0  0.5 1.25 0  0.75 1.25 0  1 1.25 0  1.25 1.25 0  1.5 1.25 0  1.75 1.25 0  2 1.25 0  2.25 1.25 0  2.5 1.25 0  2.75 1.25 0  3 1.25 0  3.25 1.25 0  3.5 1.25 0  3.75 1.25 0  4 1.25 0  4.25 1.25 0  4.5 1.25 0  4.75 1.25 0  5 1.25 0  5.25 1.25 0  5.5 1.25 0  5.75 1.25 0  6 1.25 0  6.25 1.25 0  6.5 1.25 0  6.75 1.25 0  7 1.25 0  7.25 1.25 0  7.5 1.25 0  7.75 1.25 0  8 1.25 0  8.25 1.25 0  8.5 1.25 0  8.75 1.25 0  9 1.25 0  9.25 1.25 0  9.5 1.25 0  9.75 1.25 0  10 1.25 0  10.25 1.25 0  10.5 1.25 0  10.75 1.25 0  11 1.25 0  11.25 1.25 0  11.5 1.25 0  11.75 1.25 0  12 1.25 0  12.25 1.25 0  12.5 1.25 0  12.75 1.25 0  13 1.25 0  13.25 1.25 0  13.5 1.25 0  13.75 1.25 0  14 1.25 0  14.25 1.25 0  14.5 1.25 0  14.75 1.25 0  15 1.25 0  15.25 1.25 0  15.5 1.25 0  15.75 1.25 0  16 1.25 0  16.25 1.25 0  16.5 1.25 0  16.75 1.25 0  17 1.25 0  17.25 1.25 0  17.5 1.25 0  17.75 1.25 0  18 1.25 0  18.25 1.25 0  18.5 1.25 0  18.75 1.25 0  19 1.25 0  19.25 1.25 0  19.5 1.25 0  19.75 1.25 0  20 1.25 0  20.25 1.25 0  20.5 1.25 0  20.75 1.25 0  21 1.25 0  21.25 1.25 0  21.5 1.25 0  21.75 1.25 0  22 1.25 0  22.25 1.25 0  22.5 1.25 0  22.75 1.25 0  23 1.25 0  23.25 1.25 0  23.5 1.25 0  23.75 1.25 0  24 1.25 0  24.25 1.25 0  24.5 1.25 0  24.75 1.25 0  25 1.25 0  0 1.5 0  0.25 1.5 0  0.5 1.5 0  0.75 1.5 0  1 1.5 0  1.25 1.5 0  1.5 1.5 0  1.75 1.5 0  2 1.5 0  2.25 1.5 0  2.5 1.5 0  2.75 1.5 0  3 1.5 0  3.25 1.5 0  3.5 1.5 0  3.75 1.5 0  4 1.5 0  4.25 1.5 0  4.5 1.5 0  4.75 1.5 0  5 1.5 0  5.25 1.5 0  5.5 1.5 0  5.75 1.5 0  6 1.5 0  6.25 1.5 0  6.5 1.5 0  6.75 1.5 0  7 1.5 0  7.25 1.5 0  7.5 1.5 0  7.75 1.5 0  8 1.5 0  8.25 1.5 0  8.5 1.5 0  8.75 1.5 0  9 1.5 0  9.25 1.5 0  9.5 1.5 0  9.75 1.5 0  10 1.5 0  10.25 1.5 0  10.5 1.5 0  10.75 1.5 0  11 1.5 0  11.25 1.5 0  11.5 1.5 0  11.75 1.5 0  12 1.5 0  12.25 1.5 0  12.5 1.5 0  12.75 1.5 0  13 1.5 0  13.25 1.5 0  13.5 1.5 0  13.75 1.5 0  14 1.5 0  14.25 1.5 0  14.5 1.5 0  14.75 1.5 0  15 1.5 0  15.25 1.5 0  15.5 1.5 0  15.75 1.5 0  16 1.5 0  16.25 1.5 0  16.5 1.5 0  16.75 1.5 0  17 1.5 0  17.25 1.5 0  17.5 1.5 0  17.75 1.5 0  18 1.5 0  18.25 1.5 0  18.5 1.5 0  18.75 1.5 0  19 1.5 0  19.25 1.5 0  19.5 1.5 0  19.75 1.5 0  20 1.5 0  20.25 1.5 0  20.5 1.5 0  20.75 1.5 0  21 1.5 0  21.25 1.5 0  21.5 1.5 0  21.75 1.5 0  22 1.5 0  22.25 1.5 0  22.5 1.5 0  22.75 1.5 0  23 1.5 0  23.25 1.5 0  23.5 1.5 0  23.75 1.5 0  24 1.5 0  24.25 1.5 0  24.5 1.5 0  24.75 1.5 0  25 1.5 0  0 1.75 0  0.25 1.75 0  0.5 1.75 0  0.75 1.75 0  1 1.75 0  1.25 1.75 0  1.5 1.75 0  1.75 1.75 0  2 1.75 0  2.25 1.75 0  2.5 1.75 0  2.75 1.75 0  3 1.75 0  3.25 1.75 0  3.5 1.75 0  3.75 1.75 0  4 1.75 0  4.25 1.75 0  4.5 1.75 0  4.75 1.75 0  5 1.75 0  5.25 1.75 0  5.5 1.75 0  5.75 1.75 0  6 1.75 0  6.25 1.75 0  6.5 1.75 0  6.75 1.75 0  7 1.75 0  7.25 1.75 0  7.5 1.75 0  7.75 1.75 0  8 1.75 0  8.25 1.75 0  8.5 1.75 0  8.75 1.75 0  9 1.75 0  9.25 1.75 0  9.5 1.75 0  9.75 1.75 0  10 1.75 0  10.25 1.75 0  10.5 1.75 0  10.75 1.75 0  11 1.75 0  11.25 1.75 0  11.5 1.75 0  11.75 1.75 0  12 1.75 0  12.25 1.75 0  12.5 1.75 0  12.75 1.75 0  13 1.75 0  13.25 1.75 0  13.5 1.75 0  13.75 1.75 0  14 1.75 0  14.25 1.75 0  14.5 1.75 0  14.75 1.75 0  15 1.75 0  15.25 1.75 0  15.5 1.75 0  15.75 1.75 0  16 1.75 0  16.25 1.75 0  16.5 1.75 0  16.75 1.75 0  17 1.75 0  17.25 1.75 0  17.5 1.75 0  17.75 1.75 0  18 1.75 0  18.25 1.75 0  18.5 1.75 0  18.75 1.75 0  19 1.75 0  19.25 1.75 0  19.5 1.75 0  19.75 1.75 0  20 1.75 0  20.25 1.75 0  20.5 1.75 0  20.75 1.75 0  21 1.75 0  21.25 1.75 0  21.5 1.75 0  21.75 1.75 0  22 1.75 0  22.25 1.75 0  22.5 1.75 0  22.75 1.75 0  23 1.75 0  23.25 1.75 0  23.5 1.75 0  23.75 1.75 0  24 1.75 0  24.25 1.75 0  24.5 1.75 0  24.75 1.75 0  25 1.75 0  0 2 0  0.25 2 0  0.5 2 0  0.75 2 0  1 2 0  1.25 2 0  1.5 2 0  1.75 2 0  2 2 0  2.25 2 0  2.5 2 0  2.75 2 0  3 2 0  3.25 2 0  3.5 2 0  3.75 2 0  4 2 0  4.25 2 0  4.5 2 0  4.75 2 0  5 2 0  5.25 2 0  5.5 2 0  5.75 2 0  6 2 0  6.25 2 0  6.5 2 0  6.75 2 0  7 2 0  7.25 2 0  7.5 2 0  7.75 2 0  8 2 0  8.25 2 0  8.5 2 0  8.75 2 0  9 2 0  9.25 2 0  9.5 2 0  9.75 2 0  10 2 0  10.25 2 0  10.5 2 0  10.75 2 0  11 2 0  11.25 2 0 
[...]
<PointData  Scalars="f_26"> 
<DataArray  type="Float64"  Name="f_26"  format="ascii">9.9908867659237521e-01  9.9908119415227936e-01  9.9906154344364972e-01  9.9902758767083866e-01  9.9897629561037238e-01  9.9890315446574285e-01  9.9880160495466586e-01  9.9866228492983977e-01  9.9847195647583109e-01  9.9821197727666722e-01  9.9785612726137674e-01  9.9736752494969838e-01  9.9669425951716561e-01  9.9576321439281890e-01  9.9447135339634163e-01  9.9267346729214967e-01  9.9016502700423903e-01  9.8665836359043335e-01  9.8174993581691061e-01  9.7487607984744895e-01  9.6525466244843594e-01  9.5181110938777391e-01  9.3309054914003076e-01  9.0716531515512422e-01  8.7156162430915640e-01  8.2325348156354872e-01  7.5880432034193257e-01  6.7476387248100445e-01  5.6841269260181793e-01  4.3883247365510680e-01  2.8803590171635729e-01  1.2161101592891654e-01  -5.1707946505597194e-02  -2.2169621089708993e-01  -3.7893432654967441e-01  -5.1672267953824103e-01  -6.3187458616433234e-01  -7.2436043300076569e-01  -7.9630284590832690e-01  -8.5088822976387735e-01  -8.9153109194815972e-01  -9.2137530642560861e-01  -9.4307237277917189e-01  -9.5873672681369637e-01  -9.6999261482173993e-01  -9.7805627062803357e-01  -9.8382251116701513e-01  -9.8794171865537506e-01  -9.9088267880463810e-01  -9.9298137986102064e-01  -9.9447773891671842e-01  -9.9554267997894985e-01  -9.9629782551096191e-01  -9.9682968373144998e-01  -9.9719980624767213e-01  -9.9745203033029517e-01  -9.9761762886068295e-01  -9.9771896675211358e-01  -9.9777209509759479e-01  -9.9778859147046017e-01  -9.9777686589649461e-01  -9.9774308821208813e-01  -9.9769184700526847e-01  -9.9762661800078634e-01  -9.9755009685069918e-01  -9.9746443511529281e-01  -9.9737140681826131e-01  -9.9727252494470986e-01  -9.9716912163176319e-01  -9.9706240187665640e-01  -9.9695347785669253e-01  -9.9684338906363490e-01  -9.9673311214778582e-01  -9.9662356346193359e-01  -9.9651559666154244e-01  -9.9640999726106516e-01  -9.9630747570031208e-01  -9.9620866019313825e-01  -9.9611409038272747e-01  -9.9602421259514962e-01  -9.9593937725684889e-01  -9.9585983882074114e-01  -9.9578575833325267e-01  -9.9571720857775847e-01  -9.9565418155672891e-01  -9.9559659793360211e-01  -9.9554431795263776e-01  -9.9549715329506516e-01  -9.9545487931405685e-01  -9.9541724711779955e-01  -9.9538399503489228e-01  -9.9535485909360089e-01  -9.9532958227052470e-01  -9.9530792241387578e-01  -9.9528965893587928e-01  -9.9527459866059387e-01  -9.9526258184052330e-01  -9.9525349120948592e-01  -9.9524727371048993e-01  -9.9524401267638818e-01  -9.9524421553406173e-01  9.9908545189140896e-01  9.9907888665540900e-01  9.9905937299028491e-01  9.9902534255574305e-01  9.9897387976326180e-01  9.9890048469241732e-01  9.9879858060514237e-01  9.9865877152452420e-01  9.9846776939924065e-01  9.9820686087732791e-01  9.9784972634752345e-01  9.9735934549736827e-01  9.9668361469056910e-01  9.9574915111212559e-01  9.9445255402996124e-01  9.9264812126691937e-01  9.9013066957883511e-01  9.8661168636497532e-01  9.8168659053873175e-01  9.7479053164437635e-01  9.6514021214073498e-01  9.5166030879370311e-01  9.3289637799390079e-01  9.0692362779543123e-01  8.7127535348146723e-01  8.2293856588681680e-01  7.5849581968881796e-01  6.7451810130364476e-01  5.6829879302430464e-01  4.3890858201548588e-01  2.8831514852653989e-01  1.2203760325635270e-01  -5.1248652237441544e-02  -2.2133103650594313e-01  -3.7874802664346285e-01  -5.1673176382971997e-01  -6.3203919868444192e-01  -7.2461611801048809e-01  -7.9658893059697944e-01  -8.5116201774330524e-01  -8.9176953792689484e-01  -9.2157038632991828e-01  -9.4322519152200401e-01  -9.5885278700795251e-01  -9.7007879090317639e-01  -9.7811919190879903e-01  -9.8386786800254833e-01  -9.8797408573150580e-01  -9.9090558699373676e-01  -9.9299748261824161e-01  -9.9448899496638354e-01  -9.9555051799973326e-01  -9.9630327955158504e-01  -9.9683349891548856e-01  -9.9720251865137166e-01  -9.9745402605796907e-01  -9.9761918708485797e-01  -9.9772029072773949e-01  -9.9777333431751958e-01  -9.9778985737320858e-01  -9.9777824291938377e-01  -9.9774464150308406e-01  -9.9769362774641357e-01  -9.9762866703059505e-01  -9.9755244708034352e-01  -9.9746711309510017e-01  -9.9737443371241197e-01  -9.9727591710193420e-01  -9.9717289089001326e-01  -9.9706655570410319e-01  -9.9695801940558049e-01  -9.9684831719437950e-01  -9.9673842146602909e-01  -9.9662924439957701e-01  -9.9652163562307583e-01  -9.9641637684820072e-01  -9.9631417502068464e-01  -9.9621565525249789e-01  -9.9612135455461015e-01  -9.9603171715748184e-01  -9.9594709198138831e-01  -9.9586773259869477e-01  -9.9579379981885130e-01  -9.9572536683094126e-01  -9.9566242666631177e-01  -9.9560490160321991e-01  -9.9555265403318471e-01  -9.9550549824909884e-01  -9.9546321259942727e-01  -9.9542555147926537e-01  -9.9539225669313114e-01  -9.9536306781965811e-01  -9.9533773132757986e-01  -9.9531600832949896e-01  -9.9529768101249549e-01  -9.9528255795483178e-01  -9.9527047871347996e-01  -9.9526131806693707e-01  -9.9525498882066532e-01  -9.9525143125484539e-01  -9.9525051223306227e-01  9.9907928553211323e-01  9.9907291612815430e-01  9.9905344199245427e-01  9.9901930144680073e-01  9.9896760533563211e-01  9.9889385391788754e-01  9.9879144910607931e-01  9.9865095537805382e-01  9.9845902561851696e-01  9.9819686304727961e-01  9.9783803234839707e-01  9.9734535401804136e-01  9.9666650664295042e-01  9.9572781137866229e-01  9.9442546855249192e-01  9.9261324492848424e-01  9.9008526277767817e-01  9.8655212464933928e-01  9.8160816547996499e-01  9.7468728715031394e-01  9.6500490448194909e-01  9.5148464440498071e-01  9.3267176344357727e-01  9.0664272499147014e-01  8.7093467753617326e-01  8.2254202629137352e-01  7.5805830277499875e-01  6.7406696406753408e-01  5.6787021509296243e-01  4.3853677281052672e-01  2.8801691364039800e-01  1.2180099671405391e-01  -5.1461441782913918e-02  -2.2156509480470693e-01  -3.7903293341465871e-01  -5.1706970722092138e-01  -6.3240918656432699e-01  -7.2498746686381133e-01  -7.9693401930750851e-01  -8.5146295736005218e-01  -8.9201894179789221e-01  -9.2176889311256571e-01  -9.4337819637429254e-01  -9.5896771485659082e-01  -9.7016330158142039e-01  -9.7818021533072053e-01  -9.8391121542494686e-01  -9.8800439846542454e-01  -9.9092645156806947e-01  -9.9301160776100672e-01  -9.9449839428974962e-01  -9.9555667271608594e-01  -9.9630727260785512e-01  -9.9683612047174941e-01  -9.9720434646722933e-01  -9.9745548541155404e-01  -9.9762059469343012e-01  -9.9772188650213522e-01  -9.9777530403314041e-01  -9.9779234864309108e-01  -9.9778137627003283e-01  -9.9774851789059049e-01  -9.9769833349681714e-01  -9.9763427692534745e-01  -9.9755902611559522e-01  -9.9747471730525339e-01  -9.9738311034989557e-01  -9.9728570439541553e-01  -9.9718381755378016e-01  -9.9707864033571336e-01  -9.9697126988235074e-01  -9.9686273015840809e-01  -9.9675398196979803e-01  -9.9664592576814415e-01  -9.9653939957347804e-01  -9.9643517389148939e-01  -9.9633394515694884e-01  -9.9623632895452441e-01  -9.9614285402189129e-01  -9.9605395780962280e-01  -9.9596998414908622e-01  -9.9589118336179028e-01  -9.9581771493481142e-01  -9.9574965269364724e-01  -9.9568699223417301e-01  -9.9562966023719890e-01  -9.9557752518892395e-01  -9.9553040897246092e-01  -9.9548809878070643e-01  -9.9545035882715915e-01  -9.9541694139386949e-01  -9.9538759684694056e-01  -9.9536208236001311e-01  -9.9534016920229629e-01  -9.9532164855101957e-01  -9.9530633584004380e-01  -9.9529407355416877e-01  -9.9528473182278154e-01  -9.9527820433044600e-01  -9.9527439225608139e-01  -9.9527316241729058e-01  9.9906978580310013e-01  9.9906343852972646e-01  9.9904390354682859e-01  9.9900958132337159e-01  9.9895756993046503e-01  9.9888335208495826e-01  9.9878029865665197e-01  9.9863892597859061e-01  9.9844581762380902e-01  9.9818208021388355e-01  9.9782114570706870e-01  9.9732565355730962e-01  9.9664303670629262e-01  9.9569928487453285e-01  9.9439015444322310e-01  9.9256882344872299e-01  9.9002864425727233e-01  9.8647923208395571e-01  9.8151369031597679e-01  9.7456444523209362e-01  9.6484524831141849e-01  9.5127803106520414e-01  9.3240663142547076e-01  9.0630688065260889e-01  8.7051679088828304e-01  8.2203391263840075e-01  7.5745773731764410e-01  6.7338023175897677e-01  5.6711306420154062e-01  4.3773248891777566e-01  2.8719148171106051e-01  1.2097750591952544e-01  -5.2265742914578743e-02  -2.2233740801277571e-01  -3.7976124703235958e-01  -5.1774074204259179e-01  -6.3300974379249264e-01  -7.2550766813788203e-01  -7.9736983449579202e-01  -8.5181667285929086e-01  -8.9229785692533703e-01  -9.2198325406108650e-01  -9.4353924006910095e-01  -9.5908625286626847e-01  -9.7024890860804247e-01  -9.7824090119897911e-01  -9.8395341259835378e-01  -9.8803312009056732e-01  -9.9094551891114058e-01  -9.9302388653618534e-01  -9.9450600901696162e-01  -9.9556118694869178e-01  -9.9630983331751255e-01  -9.9683756993380002e-01  -9.9720530688264097e-01  -9.9745642172027904e-01  -9.9762186048082913e-01  -9.9772375707645689e-01  -9.9777799991205729e-01  -9.9779605194313981e-01  -9.9778624188082410e-01  -9.9775468083519958e-01  -9.9770591351448112e-01  -9.9764338104151506e-01  -9.9756974976704949e-01  -9.9748714444665731e-01  -9.9739731286806244e-01  -9.9730174108724789e-01  -9.9720173287411995e-01  -9.9709846308539174e-01  -9.9699301197932177e-01  -9.9688638561220833e-01  -9.9677952615900556e-01  -9.9667331510029500e-01  -9.9656857158607182e-01  -9.9646604783096082e-01  -9.9636642305000001e-01  -9.9627029716357185e-01  -9.9617818525442658e-01  -9.9609051353094225e-01  -9.9600761733006149e-01  -9.9592974147893698e-01  -9.9585704312946177e-01  -9.9578959699088132e-01  -9.9572740272034199e-01  -9.9567039409711156e-01  -9.9561844950954492e-01  -9.9557140322850568e-01  -9.9552905692784155e-01  -9.9549119093939464e-01  -9.9545757479158059e-01  -9.9542797666849492e-01  -9.9540217152967025e-01  -9.9537994773421101e-01  -9.9536111209600109e-01  -9.9534549332501931e-01  -9.9533294372512926e-01  -9.9532333873604539e-01  -9.9531657341876578e-01  -9.9531255500405047e-01  -9.9531119515511923e-01  9.9905694713887128e-01  9.9905056971294215e-01  9.9903090708960884e-01  9.9899633188298165e-01  9.9894391903071122e-01  9.9886912312903264e-01  9.9876527500686019e-01  9.9862283380855899e-01  9.9842830315936770e-01  9.9816267963852467e-01  9.9779924507194717e-01  9.9730043515152922e-01  9.9661340735723403e-01  9.9566378054798588e-01  9.9434681440917305e-01  9.9251502644638367e-01  9.8996089907237239e-01  9.8639291670051787e-01  9.8140273890158358e-01  9.7442099306837793e-01  9.6465926473832464e-01  9.5103700360516485e-01  9.3209541409582486e-01  9.0590788633320263e-01  8.7001078234587770e-01  8.2140170006707214e-01  7.5668305766051480e-01  6.7245385934329693e-01  5.6603766815721723e-01  4.3652692534320175e-01  2.8589246707879495e-01  1.1963676286203835e-01  -5.3589130765752425e-02  -2.2358718865327898e-01  -3.8089302293550598e-01  -5.1872693679918069e-01  -6.3383991830139719e-01  -7.2618549100134810e-01  -7.9790860446969469e-01  -8.5223490588752715e-01  -8.9261575992207309e-01  -9.2222032887496930e-01  -9.4371291477285990e-01  -9.5921129265005611e-01  -9.7033734134569072e-01  -9.7830223710273834e-01  -9.8399499966659176e-01  -9.8806053455837328e-01  -9.9096293408992986e-01  -9.9303439348044542e-01  -9.9451188088953224e-01  -9.9556408906351390e-01  -9.9631098555058206e-01  -9.9683786971139132e-01  -9.9720542076831509e-01  -9.9745685265245854e-01  -9.9762299648997221e-01  -9.9772590611067691e-01  -9.9778141434634371e-01  -9.9780094547964693e-01  -9.9779280086264521e-01  -9.9776307147135868e-01  -9.9771628612142926e-01  -9.9765587211862206e-01  -9.9758448251617282e-01  -9.9750422819867945e-01  -9.9741684177611722e-01  -9.9732379237448243e-01  -9.9722636487337024e-01  -9.9712571327154875e-01  -9.9702289516672682e-01  -9.9691889246496890e-01  -9.9681462213875505e-01  -9.9671093995177207e-01  -9.9660863943502143e-01  -9.9650844794107074e-01  -9.9641102125631209e-01  -9.9631693796995124e-01  -9.9622669455342461e-01  -9.9614070187711379e-01  -9.9605928367379204e-01  -9.9598267724826606e-01  -9.9591103653310298e-01  -9.9584443740714768e-01  -9.9578288503406376e-01  -9.9572632284960139e-01  -9.9567464273455997e-01  -9.9562769585905742e-01  -9.9558530367346343e-01  -9.9554726854982456e-01  -9.9551338363937436e-01  -9.9548344159852498e-01  -9.9545724193674390e-01  -9.9543459684168967e-01  -9.9541533542424665e-01  -9.9539930638175544e-01  -9.9538637909103300e-01  -9.9537644314053986e-01  -9.9536940645933525e-01  -9.9536519304481785e-01  -9.9536374396790550e-01  9.9904090035498350e-01  9.9903447033609671e-01  9.9901463333619078e-01  9.9897974164631920e-01  9.9892684463397186e-01  9.9885136286662779e-01  9.9874658002230909e-01  9.9860288976358880e-01  9.9840670558575884e-01  9.9813890101402902e-01  9.9777259074966074e-01  9.9726998424446012e-01  9.9657793345633139e-01  9.9562164569122735e-01  9.9429582804661609e-01  9.9245225939872184e-01  9.8988244099652700e-01  9.8629356505149657e-01  9.8127560913665612e-01  9.7425704625849008e-01  9.6444676394119067e-01  9.5076094105731757e-01  9.3173700771734047e-01  9.0544433941043190e-01  8.6941564524567527e-01  8.2064635724337098e-01  7.5574001417590309e-01  6.7130242088233816e-01  5.6467195512533641e-01  4.3496464644427796e-01  2.8418084210306227e-01  1.1785098849502834e-01  -5.5357333010012159e-02  -2.2524808091410833e-01  -3.8237681477689051e-01  -5.1999386800324465e-01  -6.3488020093780972e-01  -7.2701212069217058e-01  -7.9854789270453208e-01  -8.5271829727095005e-01  -8.9297432235061924e-01  -9.2248178621977672e-01  -9.4390049777469909e-01  -9.5934366784487135e-01  -9.7042907392749522e-01  -9.7836445205830047e-01  -9.8403605977440256e-01  -9.8808665051921474e-01  -9.9097867647755400e-01  -9.9304310406994267e-01  -9.9451599353033127e-01  -9.9556537467214490e-01  -9.9631073610342780e-01  -9.9683703458647643e-01  -9.9720470661709459e-01  -9.9745679577538970e-01  -9.9762401471150552e-01  -9.9772833549367834e-01  -9.9778553475886433e-01  -9.9780699799493999e-01  -9.9780099918905374e-01  -9.9777360902382672e-01  -9.9772933991737101e-01  -9.9767160437101399e-01  -9.9760304057623594e-01  -9.9752574334582689e-01  -9.9744142724560725e-01  -9.9735154093923384e-01  -9.9725734624481510e-01  -9.9715997154692082e-01  -9.9706044652060888e-01  -9.9695972325671200e-01  -9.9685868758139473e-01  -9.9675816346034107e-01  -9.9665891274176610e-01  -9.9656163203194303e-01  -9.9646694814787751e-01  -9.9637541330969992e-01  -9.9628750099093311e-01  -9.9620360312025502e-01  -9.9612402911488129e-01  -9.9604900702109200e-01  -9.9597868684429969e-01  -9.9591314597494962e-01  -9.9585239646430046e-01  -9.9579639378250440e-01  -9.9574504660584218e-01  -9.9569822713374279e-01  -9.9565578142987232e-01  -9.9561753931269203e-01  -9.9558332338419098e-01  -9.9555295687316636e-01  -9.9552627007169359e-01  -9.9550310524941277e-01  -9.9548332002951756e-01  -9.9546678929640675e-01  -9.9545340578385677e-01  -9.9544307960141898e-01  -9.9543573719346379e-01  -9.9543132075013407e-01  -9.9542978990035569e-01  9.9902185042800173e-01  9.9901535409257058e-01  9.9899530663882175e-01  9.9896004300393415e-01  9.9890658591306603e-01  9.9883031811529643e-01  9.9872447060358793e-01  9.9857936442616957e-01  9.9838131382736028e-01  9.9811105744329831e-01  9.9774152726240806e-01  9.9723468569390417e-01  9.9653705105507429e-01  9.9557338056942934e-01  9.9423777516944589e-01  9.9238119945774772e-01  9.8979406514934054e-01  9.8618211506834175e-01  9.8113341491823625e-01  9.7407394648232037e-01  9.6420940892599327e-01  9.5045200913151229e-01  9.3133443289598794e-01  9.0492077107387592e-01  8.6873856198413402e-01  8.1977953429900730e-01  7.5464730863271356e-01  6.6995482196787448e-01  5.6305805465266578e-01  4.3310265001140508e-01  2.8212733287935360e-01  1.1569998022845308e-01  -5.7488898997445935e-02  -2.2724494816719445e-01  -3.8414978968080010e-01  -5.2149358294721360e-01  -6.3609686841928426e-01  -7.2796543590161555e-01  -7.9927396273084284e-01  -8.5325862241333061e-01  -8.9336868421558147e-01  -9.2276471223893564e-01  -9.4410016808443542e-01  -9.5948217308503458e-01  -9.7052326338927342e-01  -9.7842693441688589e-01  -9.8407614326448678e-01  -9.8811114033528669e-01  -9.9099251393488930e-01  -9.9304986146769747e-01  -9.9451824862581584e-01  -9.9556498953127337e-01  -9.9630906225089777e-01  -9.9683506246275244e-01  -9.9720317351625976e-01  -9.9745626312552449e-01  -9.9762492287069604e-01  -9.9773104213195318e-01  -9.9779034129151578e-01  -9.9781416732958561e-01  -9.9781076715971218e-01  -9.9778619123652190e-01  -9.9774493526410069e-01  -9.9769039613594379e-01  -9.9762519582396902e-01  -9.9755141111928536e-01  -9.9747073598970815e-01  -9.9738459549045233e-01  -9.9729422467398543e-01  -9.9720072210426391e-01  -9.9710508490130556e-01  -9.9700823037750974e-01  -9.9691100803041333e-01  -9.9681420475141025e-01  -9.9671854547036509e-01  -9.9662469099217410e-01  -9.9653323442970920e-01  -9.9644469735438346e-01  -9.9635952654181781e-01  -9.9627809196817019e-01  -9.9620068650370897e-01  -9.9612752755177381e-01  -9.9605876069555332e-01  -9.9599446524713764e-01  -9.9593466144938281e-01  -9.9587931896746940e-01  -9.9582836622865223e-01  -9.9578170012853207e-01  -9.9573919562060609e-01  -9.9570071474047583e-01  -9.9566611468187227e-01  -9.9563525463131652e-01  -9.9560800117299564e-01  -9.9558423218606829e-01  -9.9556383926520109e-01  -9.9554672879780048e-01  -9.9553282193272441e-01  -9.9552205379287106e-01  -9.9551437244542040e-01  -9.9550973834661405e-01  -9.9550812505996855e-01  9.9900005763789346e-01  9.9899348467596827e-01  9.9897319724948974e-01  9.9893751370216533e-01  9.9888342910954120e-01  9.9880628564159346e-01  9.9869925733128373e-01  9.9855258683090919e-01  9.9835248156324485e-01  9.9807953536359717e-01  9.9770648440862908e-01  9.9719502654202341e-01  9.9649132268200202e-01  9.9551964729371356e-01  9.9417344954729381e-01  9.9230281526043895e-01  9.8969697426328562e-01  9.8606008669010559e-01  9.8097811334227158e-01  9.7387426623071538e-01  9.6395065905336630e-01  9.5011497360871988e-01  9.3089441018506536e-01  9.0434684105853846e-01  8.6799357097248930e-01  8.1882162819847271e-01  7.5343417755518127e-01  6.6845182592888164e-01  5.6125048538735101e-01  4.3100997660964274e-01  2.7981379108821891e-01  1.1327379162686865e-01  -5.9892372581457839e-02  -2.2949215585796490e-01  -3.8613779026083667e-01  -5.2316627857505416e-01  -6.3744456896071222e-01  -7.2901271843445059e-01  -8.0006407909850286e-01  -8.5384047265921215e-01  -8.9378853912630685e-01  -9.2306223315352820e-01  -9.4430731871182760e-01  -9.5962369143593651e-01  -9.7061777908683056e-01  -9.7848821625197058e-01  -9.8411423599493175e-01  -9.8813330637585139e-01  -9.9100397282325392e-01  -9.9305435183353297e-01  -9.9451844629525532e-01  -9.9556281411462400e-01  -9.9630589959471660e-01  -9.9683192470590154e-01  -9.9720081338919653e-01  -9.9745525494265297e-01  -9.9762571939368416e-01  -9.9773401400171546e-01  -9.9779580388247435e-01  -9.9782239852742782e-01  -9.9782201858287256e-01  -9.9780069471702559e-01  -9.9776290590235728e-01  -9.9771203289159049e-01  -9.9765068035980686e-01  -9.9758090544706957e-01  -9.9750437935219005e-01  -9.9742250083654282e-01  -9.9733647503043876e-01  -9.9724736710831419e-01  -9.9715613772716649e-01  -9.9706366526048740e-01  -9.9697075856215067e-01  -9.9687816308641941e-01  -9.9678656254665010e-01  -9.9669657782756449e-01  -9.9660876451148994e-01  -9.9652361009453172e-01  -9.9644153172564087e-01  -9.9636287508253929e-01  -9.9628791479448409e-01  -9.9621685663021764e-01  -9.9614984149187435e-01  -9.9608695109658663e-01  -9.9602821509273332e-01  -9.9597361925288297e-01  -9.9592311431500113e-01  -9.9587662501005325e-01  -9.9583405881793385e-01  -9.9579531403232613e-01  -9.9576028678383199e-01  -9.9572887676267063e-01  -9.9570099148927727e-01  -9.9567654909476933e-01  -9.9565547968599877e-01  -9.9563772547681983e-01  -9.9562323996711366e-01  -9.9561198654564731e-01  -9.9560393697818472e-01  -9.9559907028540651e-