<?xml version="1.0"?>
<VTKFile type="UnstructuredGrid"  version="0.1"  >
<UnstructuredGrid>
<Piece  NumberOfPoints="10201" NumberOfCells="20000">
<Points>
<DataArray  type="Float64"  NumberOfComponents="3"  format="ascii">0 0 0  0.25 0 0  0.5 0 0  0.75 0 0  1 0 0  1.25 0 0  1.5 0 0  1.75 0 0  2 0 0  2.25 0 0  2.5 0 0  2.75 0 0  3 0 0  3.25 0 0  3.5 0 0  3.75 0 0  4 0 0  4.25 0 0  4.5 0 0  4.75 0 0  5 0 0  5.25 0 0  5.5 0 0  5.75 0 0  6 0 0  6.25 0 0  6.5 0 0  6.75 0 0  7 0 0  7.25 0 0  7.5 0 0  7.75 0 0  8 0 0  8.25 0 0  8.5 0 0  8.75 0 0  9 0 0  9.25 0 0  9.5 0 0  9.75 0 0  10 0 0  10.25 0 0  10.5 0 0  10.75 0 0  11 0 0  11.25 0 0  11.5 0 0  11.75 0 0  12 0 0  12.25 0 0  12.5 0 0  12.75 0 0  13 0 0  13.25 0 0  13.5 0 0  13.75 0 0  14 0 0  14.25 0 0  14.5 0 0  14.75 0 0  15 0 0  15.25 0 0  15.5 0 0  15.75 0 0  16 0 0  16.25 0 0  16.5 0 0  16.75 0 0  17 0 0  17.25 0 0  17.5 0 0  17.75 0 0  18 0 0  18.25 0 0  18.5 0 0  18.75 0 0  19 0 0  19.25 0 0  19.5 0 0  19.75 0 0  20 0 0  20.25 0 0  20.5 0 0  20.75 0 0  21 0 0  21.25 0 0  21.5 0 0  21.75 0 0  22 0 0  22.25 0 0  22.5 0 0  22.75 0 0  23 0 0  23.25 0 0  23.5 0 0  23.75 0 0  24 0 0  24.25 0 0  24.5 0 0  24.75 0 0  25 0 0  0 0.25 0  0.25 0.25 0  0.5 0.25 0  0.75 0.25 0  1 0.25 0  1.25 0.25 0  1.5 0.25 0  1.75 0.25 0  2 0.25 0  2.25 0.25 0  2.5 0.25 0  2.75 0.25 0  3 0.25 0  3.25 0.25 0  3.5 0.25 0  3.75 0.25 0  4 0.25 0  4.25 0.25 0  4.5 0.25 0  4.75 0.25 0  5 0.25 0  5.25 0.25 0  5.5 0.25 0  5.75 0.25 0  6 0.25 0  6.25 0.25 0  6.5 0.25 0  6.75 0.25 0  7 0.25 0  7.25 0.25 0  7.5 0.25 0  7.75 0.25 0  8 0.25 0  8.25 0.25 0  8.5 0.25 0  8.75 0.25 0  9 0.25 0  9.25 0.25 0  9.5 0.25 0  9.75 0.25 0  10 0.25 0  10.25 0.25 0  10.5 0.25 0  10.75 0.25 0  11 0.25 0  11.25 0.25 0  11.5 0.25 0  11.75 0.25 0  12 0.25 0  12.25 0.25 0  12.5 0.25 0  12.75 0.25 0  13 0.25 0  13.25 0.25 0  13.5 0.25 0  13.75 0.25 0  14 0.25 0  14.25 0.25 0  14.5 0.25 0  14.75 0.25 0  15 0.25 0  15.25 0.25 0  15.5 0.25 0  15.75 0.25 0  16 0.25 0  16.25 0.25 0  16.5 0.25 0  16.75 0.25 0  17 0.25 0  17.25 0.25 0  17.5 0.25 0  17.75 0.25 0  18 0.25 0  18.25 0.25 0  18.5 0.25 0  18.75 0.25 0  19 0.25 0  19.25 0.25 0  19.5 0.25 0  19.75 0.25 0  20 0.25 0  20.25 0.25 0  20.5 0.25 0  20.75 0.25 0  21 0.25 0  21.25 0.25 0  21.5 0.25 0  21.75 0.25 0  22 0.25 0  22.25 0.25 0  22.5 0.25 0  22.75 0.25 0  23 0.25 0  23.25 0.25 0  23.5 0.25 0  23.75 0.25 0  24 0.25 0  24.25 0.25 0  24.5 0.25 0  24.75 0.25 0  25 0.25 0  0 0.5 0  0.25 0.5 0  0.5 0.5 0  0.75 0.5 0  1 0.5 0  1.25 0.5 0  1.5 0.5 0  1.75 0.5 0  2 0.5 0  2.25 0.5 0  2.5 0.5 0  2.75 0.5 0  3 0.5 0  3.25 0.5 0  3.5 0.5 0  3.75 0.5 0  4 0.5 0  4.25 0.5 0  4.5 0.5 0  4.75 0.5 0  5 0.5 0  5.25 0.5 0  5.5 0.5 0  5.75 0.5 0  6 0.5 0  6.25 0.5 0  6.5 0.5 0  6.75 0.5 0  7 0.5 0  7.25 0.5 0  7.5 0.5 0  7.75 0.5 0  8 0.5 0  8.25 0.5 0  8.5 0.5 0  8.75 0.5 0  9 0.5 0  9.25 0.5 0  9.5 0.5 0  9.75 0.5 0  10 0.5 0  10.25 0.5 0  10.5 0.5 0  10.75 0.5 0  11 0.5 0  11.25 0.5 0  11.5 0.5 0  11.75 0.5 0  12 0.5 0  12.25 0.5 0  12.5 0.5 0  12.75 0.5 0  13 0.5 0  13.25 0.5 0  13.5 0.5 0  13.75 0.5 0  14 0.5 0  14.25 0.5 0  14.5 0.5 0  14.75 0.5 0  15 0.5 0  15.25 0.5 0  15.5 0.5 0  15.75 0.5 0  16 0.5 0  16.25 0.5 0  16.5 0.5 0  16.75 0.5 0  17 0.5 0  17.25 0.5 0  17.5 0.5 0  17.75 0.5 0  18 0.5 0  18.25 0.5 0  18.5 0.5 0  18.75 0.5 0  19 0.5 0  19.25 0.5 0  19.5 0.5 0  19.75 0.5 0  20 0.5 0  20.25 0.5 0  20.5 0.5 0  20.75 0.5 0  21 0.5 0  21.25 0.5 0  21.5 0.5 0  21.75 0.5 0  22 0.5 0  22.25 0.5 0  22.5 0.5 0  22.75 0.5 0  23 0.5 0  23.25 0.5 0  23.5 0.5 0  23.75 0.5 0  24 0.5 0  24.25 0.5 0  24.5 0.5 0  24.75 0.5 0  25 0.5 0  0 0.75 0  0.25 0.75 0  0.5 0.75 0  0.75 0.75 0  1 0.75 0  1.25 0.75 0  1.5 0.75 0  1.75 0.75 0  2 0.75 0  2.25 0.75 0  2.5 0.75 0  2.75 0.75 0  3 0.75 0  3.25 0.75 0  3.5 0.75 0  3.75 0.75 0  4 0.75 0  4.25 0.75 0  4.5 0.75 0  4.75 0.75 0  5 0.75 0  5.25 0.75 0  5.5 0.75 0  5.75 0.75 0  6 0.75 0  6.25 0.75 0  6.5 0.75 0  6.75 0.75 0  7 0.75 0  7.25 0.75 0  7.5 0.75 0  7.75 0.75 0  8 0.75 0  8.25 0.75 0  8.5 0.75 0  8.75 0.75 0  9 0.75 0  9.25 0.75 0  9.5 0.75 0  9.75 0.75 0  10 0.75 0  10.25 0.75 0  10.5 0.75 0  10.75 0.75 0  11 0.75 0  11.25 0.75 0  11.5 0.75 0  11.75 0.75 0  12 0.75 0  12.25 0.75 0  12.5 0.75 0  12.75 0.75 0  13 0.75 0  13.25 0.75 0  13.5 0.75 0  13.75 0.75 0  14 0.75 0  14.25 0.75 0  14.5 0.75 0  14.75 0.75 0  15 0.75 0  15.25 0.75 0  15.5 0.75 0  15.75 0.75 0  16 0.75 0  16.25 0.75 0  16.5 0.75 0  16.75 0.75 0  17 0.75 0  17.25 0.75 0  17.5 0.75 0  17.75 0.75 0  18 0.75 0  18.25 0.75 0  18.5 0.75 0  18.75 0.75 0  19 0.75 0  19.25 0.75 0  19.5 0.75 0  19.75 0.75 0  20 0.75 0  20.25 0.75 0  20.5 0.75 0  20.75 0.75 0  21 0.75 0  21.25 0.75 0  21.5 0.75 0  21.75 0.75 0  22 0.75 0  22.25 0.75 0  22.5 0.75 0  22.75 0.75 0  23 0.75 0  23.25 0.75 0  23.5 0.75 0  23.75 0.75 0  24 0.75 0  24.25 0.75 0  24.5 0.75 0  24.75 0.75 0  25 0.75 0  0 1 0  0.25 1 0  0.5 1 0  0.75 1 0  1 1 0  1.25 1 0  1.5 1 0  1.75 1 0  2 1 0  2.25 1 0  2.5 1 0  2.75 1 0  3 1 0  3.25 1 0  3.5 1 0  3.75 1 0  4 1 0  4.25 1 0  4.5 1 0  4.75 1 0  5 1 0  5.25 1 0  5.5 1 0  5.75 1 0  6 1 0  6.25 1 0  6.5 1 0  6.75 1 0  7 1 0  7.25 1 0  7.5 1 0  7.75 1 0  8 1 0  8.25 1 0  8.5 1 0  8.75 1 0  9 1 0  9.25 1 0  9.5 1 0  9.75 1 0  10 1 0  10.25 1 0  10.5 1 0  10.75 1 0  11 1 0  11.25 1 0  11.5 1 0  11.75 1 0  12 1 0  12.25 1 0  12.5 1 0  12.75 1 0  13 1 0  13.25 1 0  13.5 1 0  13.75 1 0  14 1 0  14.25 1 0  14.5 1 0  14.75 1 0  15 1 0  15.25 1 0  15.5 1 0  15.75 1 0  16 1 0  16.25 1 0  16.5 1 0  16.75 1 0  17 1 0  17.25 1 0  17.5 1 0  17.75 1 0  18 1 0  18.25 1 0  18.5 1 0  18.75 1 0  19 1 0  19.25 1 0  19.5 1 0  19.75 1 0  20 1 0  20.25 1 0  20.5 1 0  20.75 1 0  21 1 0  21.25 1 0  21.5 1 0  21.75 1 0  22 1 0  22.25 1 0  22.5 1 0  22.75 1 0  23 1 0  23.25 1 0  23.5 1 0  23.75 1 0  24 1 0  24.25 1 0  24.5 1 0  24.75 1 0  25 1 0  0 1.25 0  0.25 1.25 0  0.5 1.25 0  0.75 1.25 0  1 1.25 0  1.25 1.25 0  1.5 1.25 0  1.75 1.25 0  2 1.25 0  2.25 1.25 0  2.5 1.25 0  2.75 1.25 0  3 1.25 0  3.25 1.25 0  3.5 1.25 0  3.75 1.25 0  4 1.25 0  4.25 1.25 0  4.5 1.25 0  4.75 1.25 0  5 1.25 0  5.25 1.25 0  5.5 1.25 0  5.75 1.25 0  6 1.25 0  6.25 1.25 0  6.5 1.25 0  6.75 1.25 0  7 1.25 0  7.25 1.25 0  7.5 1.25 0  7.75 1.25 0  8 1.25 0  8.25 1.25 0  8.5 1.25 0  8.75 1.25 0  9 1.25 0  9.25 1.25 0  9.5 1.25 0  9.75 1.25 0  10 1.25 0  10.25 1.25 0  10.5 1.25 0  10.75 1.25 0  11 1.25 0  11.25 1.25 0  11.5 1.25 0  11.75 1.25 0  12 1.25 0  12.25 1.25 0  12.5 1.25 0  12.75 1.25 0  13 1.25 0  13.25 1.25 0  13.5 1.25 0  13.75 1.25 0  14 1.25 0  14.25 1.25 0  14.5 1.25 0  14.75 1.25 0  15 1.25 0  15.25 1.25 0  15.5 1.25 0  15.75 1.25 0  16 1.25 0  16.25 1.25 0  16.5 1.25 0  16.75 1.25 0  17 1.25 0  17.25 1.25 0  17.5 1.25 0  17.75 1.25 0  18 1.25 0  18.25 1.25 0  18.5 1.25 0  18.75 1.25 0  19 1.25 0  19.25 1.25 0  19.5 1.25 0  19.75 1.25 0  20 1.25 0  20.25 1.25 0  20.5 1.25 0  20.75 1.25 0  21 1.25 0  21.25 1.25 0  21.5 1.25 0  21.75 1.25 0  22 1.25 0  22.25 1.25 0  22.5 1.25 0  22.75 1.25 0  23 1.25 0  23.25 1.25 0  23.5 1.25 0  23.75 1.25 0  24 1.25 0  24.25 1.25 0  24.5 1.25 0  24.75 1.25 0  25 1.25 0  0 1.5 0  0.25 1.5 0  0.5 1.5 0  0.75 1.5 0  1 1.5 0  1.25 1.5 0  1.5 1.5 0  1.75 1.5 0  2 1.5 0  2.25 1.5 0  2.5 1.5 0  2.75 1.5 0  3 1.5 0  3.25 1.5 0  3.5 1.5 0  3.75 1.5 0  4 1.5 0  4.25 1.5 0  4.5 1.5 0  4.75 1.5 0  5 1.5 0  5.25 1.5 0  5.5 1.5 0  5.75 1.5 0  6 1.5 0  6.25 1.5 0  6.5 1.5 0  6.75 1.5 0  7 1.5 0  7.25 1.5 0  7.5 1.5 0  7.75 1.5 0  8 1.5 0  8.25 1.5 0  8.5 1.5 0  8.75 1.5 0  9 1.5 0  9.25 1.5 0  9.5 1.5 0  9.75 1.5 0  10 1.5 0  10.25 1.5 0  10.5 1.5 0  10.75 1.5 0  11 1.5 0  11.25 1.5 0  11.5 1.5 0  11.75 1.5 0  12 1.5 0  12.25 1.5 0  12.5 1.5 0  12.75 1.5 0  13 1.5 0  13.25 1.5 0  13.5 1.5 0  13.75 1.5 0  14 1.5 0  14.25 1.5 0  14.5 1.5 0  14.75 1.5 0  15 1.5 0  15.25 1.5 0  15.5 1.5 0  15.75 1.5 0  16 1.5 0  16.25 1.5 0  16.5 1.5 0  16.75 1.5 0  17 1.5 0  17.25 1.5 0  17.5 1.5 0  17.75 1.5 0  18 1.5 0  18.25 1.5 0  18.5 1.5 0  18.75 1.5 0  19 1.5 0  19.25 1.5 0  19.5 1.5 0  19.75 1.5 0  20 1.5 0  20.25 1.5 0  20.5 1.5 0  20.75 1.5 0  21 1.5 0  21.25 1.5 0  21.5 1.5 0  21.75 1.5 0  22 1.5 0  22.25 1.5 0  22.5 1.5 0  22.75 1.5 0  23 1.5 0  23.25 1.5 0  23.5 1.5 0  23.75 1.5 0  24 1.5 0  24.25 1.5 0  24.5 1.5 0  24.75 1.5 0  25 1.5 0  0 1.75 0  0.25 1.75 0  0.5 1.75 0  0.75 1.75 0  1 1.75 0  1.25 1.75 0  1.5 1.75 0  1.75 1.75 0  2 1.75 0  2.25 1.75 0  2.5 1.75 0  2.75 1.75 0  3 1.75 0  3.25 1.75 0  3.5 1.75 0  3.75 1.75 0  4 1.75 0  4.25 1.75 0  4.5 1.75 0  4.75 1.75 0  5 1.75 0  5.25 1.75 0  5.5 1.75 0  5.75 1.75 0  6 1.75 0  6.25 1.75 0  6.5 1.75 0  6.75 1.75 0  7 1.75 0  7.25 1.75 0  7.5 1.75 0  7.75 1.75 0  8 1.75 0  8.25 1.75 0  8.5 1.75 0  8.75 1.75 0  9 1.75 0  9.25 1.75 0  9.5 1.75 0  9.75 1.75 0  10 1.75 0  10.25 1.75 0  10.5 1.75 0  10.75 1.75 0  11 1.75 0  11.25 1.75 0  11.5 1.75 0  11.75 1.75 0  12 1.75 0  12.25 1.75 0  12.5 1.75 0  12.75 1.75 0  13 1.75 0  13.25 1.75 0  13.5 1.75 0  13.75 1.75 0  14 1.75 0  14.25 1.75 0  14.5 1.75 0  14.75 1.75 0  15 1.75 0  15.25 1.75 0  15.5 1.75 0  15.75 1.75 0  16 1.75 0  16.25 1.75 0  16.5 1.75 0  16.75 1.75 0  17 1.75 0  17.25 1.75 0  17.5 1.75 0  17.75 1.75 0  18 1.75 0  18.25 1.75 0  18.5 1.75 0  18.75 1.75 0  19 1.75 0  19.25 1.75 0  19.5 1.75 0  19.75 1.75 0  20 1.75 0  20.25 1.75 0  20.5 1.75 0  20.75 1.75 0  21 1.75 0  21.25 1.75 0  21.5 1.75 0  21.75 1.75 0  22 1.75 0  22.25 1.75 0  22.5 1.75 0  22.75 1.75 0  23 1.75 0  23.25 1.75 0  23.5 1.75 0  23.75 1.75 0  24 1.75 0  24.25 1.75 0  24.5 1.75 0  24.75 1.75 0  25 1.75 0  0 2 0  0.25 2 0  0.5 2 0  0.75 2 0  1 2 0  1.25 2 0  1.5 2 0  1.75 2 0  2 2 0  2.25 2 0  2.5 2 0  2.75 2 0  3 2 0  3.25 2 0  3.5 2 0  3.75 2 0  4 2 0  4.25 2 0  4.5 2 0  4.75 2 0  5 2 0  5.25 2 0  5.5 2 0  5.75 2 0  6 2 0  6.25 2 0  6.5 2 0  6.75 2 0  7 2 0  7.25 2 0  7.5 2 0  7.75 2 0  8 2 0  8.25 2 0  8.5 2 0  8.75 2 0  9 2 0  9.25 2 0  9.5 2 0  9.75 2 0  10 2 0  10.25 2 0  10.5 2 0  10.75 2 0  11 2 0  11.25 2 0 
[...]
<PointData  Scalars="f_26"> 
<DataArray  type="Float64"  Name="f_26"  format="ascii">8.9790143251269230e-02  8.9469859003874108e-02  8.8919036350484232e-02  8.8103857538249189e-02  8.7044482587837105e-02  8.5782845230362392e-02  8.4371820937757872e-02  8.2868921495647840e-02  8.1330869716774418e-02  7.9808383386102397e-02  7.8341254562268911e-02  7.6954033747460182e-02  7.5652687817278491e-02  7.4422580660795462e-02  7.3228048933253700e-02  7.2013724390353182e-02  7.0707602891957877e-02  6.9225695908816026e-02  6.7477943091837272e-02  6.5374933802154686e-02  6.2834898136837403e-02  5.9790395202910171e-02  5.6194152218460601e-02  5.2023588290761924e-02  4.7283679437534094e-02  4.2007968682425754e-02  3.6257676562263134e-02  3.0119004818647852e-02  2.3698837208976097e-02  1.7119122571359509e-02  1.0510280975761474e-02  4.0040134075591347e-03  -2.2740716446685923e-03  -8.2115706438386765e-03  -1.3715667526949100e-02  -1.8718309554120491e-02  -2.3179725172708037e-02  -2.7089906534622107e-02  -3.0467810541363518e-02  -3.3358218490192375e-02  -3.5826420247815537e-02  -3.7951127434873715e-02  -3.9816237100499127e-02  -4.1502227570074816e-02  -4.3078042327685792e-02  -4.4594288771807655e-02  -4.6078445184134044e-02  -4.7532546701630755e-02  -4.8933539179013191e-02  -5.0236187411358976e-02  -5.1378142489302926e-02  -5.2286548795885561e-02  -5.2885430870771785e-02  -5.3103057153481466e-02  -5.2878530594691338e-02  -5.2166992356571920e-02  -5.0943022665910713e-02  -4.9202055641139476e-02  -4.6959863992262645e-02  -4.4250386894498152e-02  -4.1122344872721026e-02  -3.7635189220143306e-02  -3.3854958216460444e-02  -2.9850556487239863e-02  -2.5690847295660801e-02  -2.1442771591448990e-02  -1.7170511699101464e-02  -1.2935534298221064e-02  -8.7972067618685163e-03  -4.8136044623226853e-03  -1.0421233766062868e-03  2.4604225026643931e-03  5.6384226577770426e-03  8.4388703979055030e-03  1.0813458013579925e-02  1.2721161377958978e-02  1.4131025278987679e-02  1.5024821326093354e-02  1.5399252772018339e-02  1.5267418178547657e-02  1.4659310303752549e-02  1.3621210700617108e-02  1.2213938655449475e-02  1.0510019936796886e-02  8.5899493391715011e-03  6.5378210440011856e-03  4.4366794658739928e-03  2.3639871958053504e-03  3.8760586730467796e-04  -1.4373629650185613e-03  -3.0706210659122916e-03  -4.4874652077581340e-03  -5.6783222836710090e-03  -6.6471447515875533e-03  -7.4088809133055333e-03  -7.9862983984794224e-03  -8.4064663439177047e-03  -8.6971921783523792e-03  -8.8836542962925889e-03  -8.9853110999287139e-03  -9.0125815811255439e-03  8.8838109414938610e-02  8.8639697775909271e-02  8.8126380927896542e-02  8.7331226128941924e-02  8.6289260747186264e-02  8.5045861931149921e-02  8.3654608647648468e-02  8.2172984824231132e-02  8.0657480135219645e-02  7.9158540149717474e-02  7.7715710910100988e-02  7.6353352132152164e-02  7.5077305779882003e-02  7.3872874901658364e-02  7.2704388138513348e-02  7.1516503933024195e-02  7.0237257263814079e-02  6.8782687674683166e-02  6.7062730090257816e-02  6.4987918963274771e-02  6.2476368350377079e-02  5.9460456877306292e-02  5.5892671345853559e-02  5.1750141946311431e-02  4.7037523878633143e-02  4.1788026963989283e-02  3.6062546365636869e-02  2.9946985497624343e-02  2.3547974186917477e-02  1.6987267166992306e-02  1.0395164163010165e-02  3.9033323996307502e-03  -2.3625552797162269e-03  -8.2899236979157662e-03  -1.3785672994682280e-02  -1.8781356330893520e-02  -2.3236708633770489e-02  -2.7141150485532502e-02  -3.0513021077014767e-02  -3.3396478624268484e-02  -3.5856230834568674e-02  -3.7970495313905374e-02  -3.9822806232670642e-02  -4.1493444002643723e-02  -4.3051339897743963e-02  -4.4547280121338913e-02  -4.6009102237186579e-02  -4.7439356252136779e-02  -4.8815622371186057e-02  -5.0093376151332449e-02  -5.1211010568488202e-02  -5.2096400082602440e-02  -5.2674250777408997e-02  -5.2873436314521328e-02  -5.2633571087375333e-02  -5.1910206824873614e-02  -5.0678235472691839e-02  -4.8933312887208383e-02  -4.6691356222437315e-02  -4.3986384981597314e-02  -4.0867146437592212e-02  -3.7393070539732405e-02  -3.3630125342612262e-02  -2.9647089499401223e-02  -2.5512633211367614e-02  -2.1293424130913528e-02  -1.7053279282976015e-02  -1.2853200688180667e-02  -8.7519910276621943e-03  -4.8070680722787952e-03  -1.0750920449420435e-03  2.3879158369127058e-03  5.5271692887459692e-03  8.2904894403689842e-03  1.0630371676911030e-02  1.2506542841909392e-02  1.3888720939760218e-02  1.4759249737074537e-02  1.5115283158757460e-02  1.4970232199761220e-02  1.4354251819201509e-02  1.3313629531623527e-02  1.1909035352747496e-02  1.0212699025442903e-02  8.3046881177876279e-03  6.2685597218654658e-03  4.1867364253738290e-03  2.1360008589125300e-03  1.8350247096906376e-04  -1.6163780577340765e-03  -3.2240519032666697e-03  -4.6154974043958645e-03  -5.7817825186100109e-03  -6.7274511272863453e-03  -7.4679876073190446e-03  -8.0266385194838127e-03  -8.4308993816345854e-03  -8.7089729683883788e-03  -8.8864864916477753e-03  -8.9837602735480457e-03  -9.0141453523628970e-03  8.6426754312221063e-02  8.6267952228729142e-02  8.5795290086994783e-02  8.5041146644959806e-02  8.4044332069257696e-02  8.2851950599069926e-02  8.1517805301874788e-02  8.0098862399529319e-02  7.8650779945308974e-02  7.7223083604838400e-02  7.5854436871061678e-02  7.4568426425754383e-02  7.3370268424996610e-02  7.2244798879980809e-02  7.1156028397651186e-02  7.0048419608059687e-02  6.8849894826682564e-02  6.7476418023773049e-02  6.5837838247184380e-02  6.3844550623025478e-02  6.1414442498782668e-02  5.8479557475280476e-02  5.4991933182499106e-02  5.0928145891258804e-02  4.6292214968042721e-02  4.1116665485871437e-02  3.5461698149871691e-02  2.9412553865867705e-02  2.3075273210868791e-02  1.6571134328921877e-02  1.0030109981268036e-02  3.5837243975570181e-03  -2.6422775796209955e-03  -8.5350079823085425e-03  -1.4000796173138805e-02  -1.8970362464668548e-02  -2.3402360658630182e-02  -2.7284917455378685e-02  -3.0634924390615170e-02  -3.3495019437556263e-02  -3.5928416259332643e-02  -3.8011973346207442e-02  -3.9828109507787722e-02  -4.1456331715066512e-02  -4.2965217006663566e-02  -4.4405664666631331e-02  -4.5806106323805301e-02  -4.7170144703307049e-02  -4.8476815379277720e-02  -4.9683368128134696e-02  -5.0730186007999743e-02  -5.1547237448207155e-02  -5.2061315886923719e-02  -5.2203276121368318e-02  -5.1914526054820241e-02  -5.1152164521802997e-02  -4.9892349263344175e-02  -4.8131707756452341e-02  -4.5886839387744599e-02  -4.3192172845170296e-02  -4.0096612712626566e-02  -3.6659514208996255e-02  -3.2946552524769072e-02  -2.9026001037285313e-02  -2.4965810107968184e-02  -2.0831705564609171e-02  -1.6686332103112572e-02  -1.2589284033702039e-02  -8.5977240207077595e-03  -4.7672116329385544e-03  -1.1523573499834874e-03  2.1930198498708734e-03  5.2164383260816117e-03  7.8680671773371010e-03  1.0102727276610223e-02  1.1882378133071034e-02  1.3178804849331285e-02  1.3976179900159910e-02  1.4273177492036243e-02  1.4084356853659791e-02  1.3440596266079335e-02  1.2388444194143701e-02  1.0988351418500400e-02  9.3118530876130316e-03  7.4378752854222900e-03  5.4484374415725558e-03  3.4240974986492036e-03  1.4395285437666697e-03  -4.4038602573556312e-04  -2.1636000011531634e-03  -3.6928454763977101e-03  -5.0063367592302370e-03  -6.0972349517405960e-03  -6.9719914138658742e-03  -7.6477849363502668e-03  -8.1493312918924348e-03  -8.5053732171297917e-03  -8.7451589066595559e-03  -8.8951986511291783e-03  -8.9765674338220802e-03  -9.0029961874997354e-03  8.2602621923342445e-02  8.2466218575491884e-02  8.2035242371641476e-02  8.1336696231632116e-02  8.0408186277946297e-02  7.9296165856550527e-02  7.8053431782392713e-02  7.6735570044222379e-02  7.5396652332109140e-02  7.4084579679701404e-02  7.2836484136120400e-02  7.1674606326212850e-02  7.0603057016032422e-02  6.9605828609546214e-02  6.8646340165789993e-02  6.7668678770818932e-02  6.6600550760419250e-02  6.5357794134692226e-02  6.3850147492961210e-02  6.1987840077471830e-02  5.9688478436091180e-02  5.6883668986559471e-02  5.3524836624871265e-02  4.9587773923635600e-02  4.5075572424710421e-02  4.0019730338109349e-02  3.4479380293935907e-02  2.8538718714239256e-02  2.2302832199427674e-02  1.5892201133296965e-02  9.4362193885322975e-03  3.0661096572542255e-03  -3.0923546142318315e-03  -8.9258825445295027e-03  -1.4339995584359413e-02  -1.9264190431615334e-02  -2.3655497934021257e-02  -2.7500071976942791e-02  -3.0812567274197469e-02  -3.3633242241162459e-02  -3.6022939014322720e-02  -3.8056322120550004e-02  -3.9813967763478043e-02  -4.1374053184751916e-02  -4.2804471369662950e-02  -4.4156173119386383e-02  -4.5458414101104669e-02  -4.6716373062830240e-02  -4.7911337145403840e-02  -4.9003358427619430e-02  -4.9936012349695816e-02  -5.0642669157770978e-02  -5.1053550024162765e-02  -5.1102793182513769e-02  -5.0734802016743269e-02  -4.9909274654997296e-02  -4.8604502858104047e-02  -4.6818751464141939e-02  -4.4569760981551826e-02  -4.1892628143082894e-02  -3.8836487863867189e-02  -3.5460525350853270e-02  -3.1829876644528410e-02  -2.8011926949829083e-02  -2.4073397332212518e-02  -2.0078441334207751e-02  -1.6087781885971066e-02  -1.2158737442222458e-02  -8.3458444634448899e-03  -4.7017033205492657e-03  -1.2776666226058983e-03  1.8759506208483826e-03  4.7103464977964688e-03  7.1794592183876569e-03  9.2418681743507026e-03  1.0863170089312452e-02  1.2018547852372713e-02  1.2695210852228226e-02  1.2894389812021310e-02  1.2632609072153989e-02  1.1942025896274895e-02  1.0869711416131769e-02  9.4758447397854870e-03  7.8308948085533247e-03  6.0119670836245916e-03  4.0985849173935463e-03  2.1682470036826266e-03  2.9214070299625418e-04  -1.4686127257902664e-03  -3.0658537859939304e-03  -4.4661829056451691e-03  -5.6515388664322708e-03  -6.6185612604010005e-03  -7.3768582674302420e-03  -7.9463950794338312e-03  -8.3542799174713776e-03  -8.6312519122362426e-03  -8.8081722427941333e-03  -8.9127941246999898e-03  -8.9670434312502136e-03  -8.9849694167239286e-03  7.7510631213009662e-02  7.7393544133721986e-02  7.7008028251355623e-02  7.6377370910304693e-02  7.5536705735454887e-02  7.4530428186949368e-02  7.3409208014015778e-02  7.2226334183620761e-02  7.1033490602939731e-02  6.9876233371010843e-02  6.8789523464006727e-02  6.7793708807334083e-02  6.6891354007139442e-02  6.6065280353995601e-02  6.5278100349180468e-02  6.4473413382869202e-02  6.3578682579305032e-02  6.2509652958018511e-02  6.1176016718516524e-02  5.9487901534276168e-02  5.7362668400423103e-02  5.4731467857036808e-02  5.1545021569943512e-02  4.7778167037553158e-02  4.3432816185381536e-02  3.8539117851010517e-02  3.3154761047456259e-02  2.7362492917676243e-02  2.1266039747728824e-02  1.4984705838007210e-02  8.6469854754404555e-03  2.3835649366786230e-03  -3.6798773128464634e-03  -9.4296383826412301e-03  -1.4770274375022454e-02  -1.9629744627019764e-02  -2.3962988832158881e-02  -2.7753579023058885e-02  -3.1013209841828669e-02  -3.3778962386177398e-02  -3.6108486299454089e-02  -3.8073467733845248e-02  -3.9751956005586599e-02  -4.1220276157079079e-02  -4.2545330139997568e-02  -4.3778068708271743e-02  -4.4948796972432578e-02  -4.6064772416338287e-02  -4.7110292272591059e-02  -4.8049183693255379e-02  -4.8829343865668499e-02  -4.9388762797814505e-02  -4.9662324260504889e-02  -4.9588633213030739e-02  -4.9116160917993375e-02  -4.8208120628924489e-02  -4.6845667791592521e-02  -4.5029234834845971e-02  -4.2778035506272981e-02  -4.0127981220033151e-02  -3.7128418125101890e-02  -3.3838199048454254e-02  -3.0321636485459578e-02  -2.6644838124390380e-02  -2.2872812714872643e-02  -1.9067570027392695e-02  -1.5287251376142183e-02  -1.1586147998583396e-02  -8.0153232213791316e-03  -4.6234731942618752e-03  -1.4576507707677307e-03  1.4364649597306055e-03  4.0149601851785987e-03  6.2368057890286105e-03  8.0656294556432449e-03  9.4719448056794827e-03  1.0435559538052017e-02  1.0947847242644242e-02  1.1013573608374721e-02  1.0652009737788180e-02  9.8971335909960236e-03  8.7968063074017038e-03  7.4109061825899823e-03  5.8085034073256337e-03  4.0642567232096359e-03  2.2543003415288741e-03  4.5195521499848384e-04  -1.2763678218042939e-03  -2.8747125721845174e-03  -4.3002591106789372e-03  -5.5249197042006254e-03  -6.5357395117580019e-03  -7.3341146537980314e-03  -7.9339535262962970e-03  -8.3589971953676942e-03  -8.6395726640392020e-03  -8.8090767672277456e-03  -8.9004820595340196e-03  -8.9431259523619164e-03  -8.9599966310809874e-03  -8.9656667544217600e-03  7.1356162648154156e-02  7.1258328988305239e-02  7.0922961559157699e-02  7.0370775144956058e-02  6.9634179266133064e-02  6.8754750028349326e-02  6.7780177114379350e-02  6.6760631567458109e-02  6.5744648730981847e-02  6.4774750783136617e-02  6.3883124511458472e-02  6.3087723865304354e-02  6.2389181524210233e-02  6.1768885206158718e-02  6.1188501404401158e-02  6.0591116030460322e-02  5.9904018677353628e-02  5.9043000652323083e-02  5.7917885146688108e-02  5.6438879509703527e-02  5.4523250416876508e-02  5.2101783582162720e-02  4.9124504809129471e-02  4.5565205663275689e-02  4.1424425112067204e-02  3.6730673056219722e-02  3.1539825055926396e-02  2.5932752836633439e-02  2.0011369708863063e-02  1.3893357897608377e-02  7.7059070601635561e-03  1.5788362081256275e-03  -4.3624975470771968e-03  -1.0004075743054768e-02  -1.5249436907291450e-02  -2.0024792121322590e-02  -2.4282621028276739e-02  -2.8003399862404806e-02  -3.1195230316932568e-02  -3.3891303383682063e-02  -3.6145333728555155e-02  -3.8025315108498416e-02  -3.9606145872667690e-02  -4.0961823934523356e-02  -4.2157985453133241e-02  -4.3245543856072273e-02  -4.4256073102773512e-02  -4.5199383967005666e-02  -4.6063490743720542e-02  -4.6816892998095536e-02  -4.7412840069786841e-02  -4.7795038408149963e-02  -4.7904127812096013e-02  -4.7684204742579943e-02  -4.7088709229385073e-02  -4.6085106057689326e-02  -4.4657962698175804e-02  -4.2810232960715323e-02  -4.0562771663379862e-02  -3.7952306763225301e-02  -3.5028258270220665e-02  -3.1848898638464899e-02  -2.8477384334700567e-02  -2.4978148910557635e-02  -2.1414040745622302e-02  -1.7844431019620792e-02  -1.4324335444756985e-02  -1.0904417385915938e-02  -7.6315996878343678e-03  -4.5499304738312145e-03  -1.7013357284282567e-03  8.7405344212251922e-04  3.1382029714285536e-03  5.0561740531830067e-03  6.5977439009754016e-03  7.7394568067193316e-03  8.4668327657494696e-03  8.7764259288535124e-03  8.6774339400013407e-03  8.1926040293246495e-03  7.3582522986371411e-03  6.2232992539975052e-03  4.8473195000284996e-03  3.2977002654716084e-03  1.6460956769584660e-03  -3.5556392409773000e-05  -1.6791299230549765e-03  -3.2241669750359536e-03  -4.6211541918123227e-03  -5.8339307713340125e-03  -6.8410255611917568e-03  -7.6358306403664063e-03  -8.2256357424446268e-03  -8.6296554807777214e-03  -8.8762657951679917e-03  -8.9997191118317433e-03  -9.0366275657272326e-03  -9.0224939834540434e-03  -8.9885382750958236e-03  -8.9590205506959002e-03  -8.9492097811002154e-03  6.4386141318563683e-02  6.4307915916033187e-02  6.4026941048356226e-02  6.3561817004149881e-02  6.2942122566622766e-02  6.2206131331981371e-02  6.1397900948130073e-02  6.0563785305485125e-02  5.9748488176290256e-02  5.8990868972502185e-02  5.8319793703683648e-02  5.7750380774600180e-02  5.7281011580816249e-02  5.6891453131978562e-02  5.6542372292372765e-02  5.6176413055111833e-02  5.5720870218942932e-02  5.5091840540996050e-02  5.4199584180087301e-02  5.2954703202700036e-02  5.1274655500495245e-02  4.9090082147196991e-02  4.6350438189825184e-02  4.3028478496284835e-02  3.9123252529110510e-02  3.4661390734330839e-02  2.9696603964431363e-02  2.4307449853075692e-02  1.8593533901221711e-02  1.2670401826391672e-02  6.6634436527317148e-03  7.0117423889730606e-04  -5.0917137292319651e-03  -1.0601105216949380e-02  -1.5729593576132614e-02  -2.0401554717864066e-02  -2.4566760892012242e-02  -2.8202196518145074e-02  -3.1311850729623690e-02  -3.3924418952909943e-02  -3.6089037995331745e-02  -3.7869384657625627e-02  -3.9336658562272225e-02  -4.0562115363065920e-02  -4.1609890461522803e-02  -4.2530839202638539e-02  -4.3358014308771946e-02  -4.4104216923431624e-02  -4.4761818899273373e-02  -4.5304794102411609e-02  -4.5692651090435611e-02  -4.5875760339793806e-02  -4.5801439403638664e-02  -4.5420110840862497e-02  -4.4690880793095016e-02  -4.3585991145432504e-02  -4.2093758555560010e-02  -4.0219808157027644e-02  -3.7986615250731659e-02  -3.5431561332794577e-02  -3.2603869263141648e-02  -2.9560887441054329e-02  -2.6364231389284908e-02  -2.3076258244877385e-02  -1.9757250543556846e-02  -1.6463536157610075e-02  -1.3246595944783538e-02  -1.0153039185887999e-02  -7.2251883669387177e-03  -4.5019322169858487e-03  -2.0194911746515142e-03  1.8820860674959725e-04  2.0897518790928349e-03  3.6571062368365740e-03  4.8670765593878318e-03  5.7031529718750747e-03  6.1574856454570202e-03  6.2326880419457803e-03  5.9431827277317099e-03  5.3158523876615836e-03  4.3898321057916764e-03  3.2153666889652636e-03  1.8517501673086644e-03  3.6445687558255566e-04  -1.1783414532813223e-03  -2.7096072732690412e-03  -4.1673034383174386e-03  -5.4979613194264055e-03  -6.6596351250254844e-03  -7.6239803655129001e-03  -8.3772794388104546e-03  -8.9203426426959723e-03  -9.2673236171601642e-03  -9.4435887560626285e-03  -9.4828577159004768e-03  -9.4238792042849930e-03  -9.3069212843062427e-03  -9.1703424452191946e-03  -9.0474762218447427e-03  -8.9640171884643721e-03  -8.9360485730208324e-03  5.6873316887974631e-02  5.6814837033147755e-02  5.6591434278278459e-02  5.6219705705458894e-02  5.5726256210717036e-02  5.5145676136778628e-02  5.4517861147923598e-02  5.3884751792171247e-02  5.3286619942512166e-02  5.2758103756376865e-02  5.2324267541028840e-02  5.1997019035472852e-02  5.1772240062709265e-02  5.1627968343648425e-02  5.1523905738962435e-02  5.1402425361902211e-02  5.1191117363087749e-02  5.0806766079275825e-02  5.0160507505676008e-02  4.9163793302587432e-02  4.7734700596084471e-02  4.5804085717241969e-02  4.3321088799822306e-02  4.0257552504065881e-02  3.6611013787525432e-02  3.2406049661065528e-02  2.7693890762103993e-02  2.2550345106683949e-02  1.7072186464758381e-02  1.1372250720211391e-02  5.5735486459015894e-03  -1.9725116468409819e-04  -5.8165839412133782e-03  -1.1170587619191374e-02  -1.6161119165393048e-02  -2.0710771330408384e-02  -2.4766500620047024e-02  -2.8301540735877446e-02  -3.1315382017569220e-02  -3.3831746331197218e-02  -3.5894668516345478e-02  -3.7562990460991416e-02  -3.8903755679152351e-02  -3.9985132224254462e-02  -4.0869564702908229e-02  -4.1607845917344531e-02  -4.2234702045880312e-02  -4.2766313224933468e-02  -4.3199967274540535e-02  -4.3515799497386085e-02  -4.3680339559124322e-02  -4.3651397334634454e-02  -4.3383694974325981e-02  -4.2834603404119750e-02  -4.1969368439740549e-02  -4.0765306086625319e-02  -3.9214593354324742e-02  -3.7325461004385468e-02  -3.5121787023955429e-02  -3.2641272662256013e-02  -2.9932535767273973e-02  -2.7051560635092935e-02  -2.4057986206662777e-02  -2.1011689239497092e-02  -1.7970029655327551e-02  -1.4985985578027343e-02  -1.2107238617067662e-02  -9.3761041847336378e-03  -6.8300657638138895e-03  -4.5025892364628037e-03  -2.4238764071763904e-03  -6.2126538646015096e-04  8.8091354151143908e-04  2.0620871365310263e-03  2.9067200420127507e-03  3.4059411087748758e-03  3.5592552242236304e-03  3.3760533467427438e-03  2.8766507572725339e-03  2.0926366576705709e-03  1.0663951680312403e-03  -1.5025325142463622e-04  -1.4982494508744195e-03  -2.9142049802044915e-03  -4.3338195212861254e-03  -5.6955425646664183e-03  -6.9441779757624085e-03  -8.0341211260821100e-03  -8.9319418924798701e-03  -9.6180830177306047e-03  -1.0087526743574502e-02  -1.0349382843366263e-02  -1.0425454457651763e-02  -1.0347930284475509e-02  -1.0156421089173615e-02  -9.8945984247093867e-03  -9.6067029157636749e-03  -9.3341727015722690e-03  -9.1126074514048666e-03  -8.9692389556990017e-03  -8.9210342025215893e-03  4.9100942203978641e-02  4.9062003930112577e-02  4.8898088390957307e-02  4.8623750935108880e-