<?xml version="1.0"?>
<VTKFile type="UnstructuredGrid"  version="0.1"  >
<UnstructuredGrid>
<Piece  NumberOfPoints="10201" NumberOfCells="20000">
<Points>
<DataArray  type="Float64"  NumberOfComponents="3"  format="ascii">0 0 0  0.25 0 0  0.5 0 0  0.75 0 0  1 0 0  1.25 0 0  1.5 0 0  1.75 0 0  2 0 0  2.25 0 0  2.5 0 0  2.75 0 0  3 0 0  3.25 0 0  3.5 0 0  3.75 0 0  4 0 0  4.25 0 0  4.5 0 0  4.75 0 0  5 0 0  5.25 0 0  5.5 0 0  5.75 0 0  6 0 0  6.25 0 0  6.5 0 0  6.75 0 0  7 0 0  7.25 0 0  7.5 0 0  7.75 0 0  8 0 0  8.25 0 0  8.5 0 0  8.75 0 0  9 0 0  9.25 0 0  9.5 0 0  9.75 0 0  10 0 0  10.25 0 0  10.5 0 0  10.75 0 0  11 0 0  11.25 0 0  11.5 0 0  11.75 0 0  12 0 0  12.25 0 0  12.5 0 0  12.75 0 0  13 0 0  13.25 0 0  13.5 0 0  13.75 0 0  14 0 0  14.25 0 0  14.5 0 0  14.75 0 0  15 0 0  15.25 0 0  15.5 0 0  15.75 0 0  16 0 0  16.25 0 0  16.5 0 0  16.75 0 0  17 0 0  17.25 0 0  17.5 0 0  17.75 0 0  18 0 0  18.25 0 0  18.5 0 0  18.75 0 0  19 0 0  19.25 0 0  19.5 0 0  19.75 0 0  20 0 0  20.25 0 0  20.5 0 0  20.75 0 0  21 0 0  21.25 0 0  21.5 0 0  21.75 0 0  22 0 0  22.25 0 0  22.5 0 0  22.75 0 0  23 0 0  23.25 0 0  23.5 0 0  23.75 0 0  24 0 0  24.25 0 0  24.5 0 0  24.75 0 0  25 0 0  0 0.25 0  0.25 0.25 0  0.5 0.25 0  0.75 0.25 0  1 0.25 0  1.25 0.25 0  1.5 0.25 0  1.75 0.25 0  2 0.25 0  2.25 0.25 0  2.5 0.25 0  2.75 0.25 0  3 0.25 0  3.25 0.25 0  3.5 0.25 0  3.75 0.25 0  4 0.25 0  4.25 0.25 0  4.5 0.25 0  4.75 0.25 0  5 0.25 0  5.25 0.25 0  5.5 0.25 0  5.75 0.25 0  6 0.25 0  6.25 0.25 0  6.5 0.25 0  6.75 0.25 0  7 0.25 0  7.25 0.25 0  7.5 0.25 0  7.75 0.25 0  8 0.25 0  8.25 0.25 0  8.5 0.25 0  8.75 0.25 0  9 0.25 0  9.25 0.25 0  9.5 0.25 0  9.75 0.25 0  10 0.25 0  10.25 0.25 0  10.5 0.25 0  10.75 0.25 0  11 0.25 0  11.25 0.25 0  11.5 0.25 0  11.75 0.25 0  12 0.25 0  12.25 0.25 0  12.5 0.25 0  12.75 0.25 0  13 0.25 0  13.25 0.25 0  13.5 0.25 0  13.75 0.25 0  14 0.25 0  14.25 0.25 0  14.5 0.25 0  14.75 0.25 0  15 0.25 0  15.25 0.25 0  15.5 0.25 0  15.75 0.25 0  16 0.25 0  16.25 0.25 0  16.5 0.25 0  16.75 0.25 0  17 0.25 0  17.25 0.25 0  17.5 0.25 0  17.75 0.25 0  18 0.25 0  18.25 0.25 0  18.5 0.25 0  18.75 0.25 0  19 0.25 0  19.25 0.25 0  19.5 0.25 0  19.75 0.25 0  20 0.25 0  20.25 0.25 0  20.5 0.25 0  20.75 0.25 0  21 0.25 0  21.25 0.25 0  21.5 0.25 0  21.75 0.25 0  22 0.25 0  22.25 0.25 0  22.5 0.25 0  22.75 0.25 0  23 0.25 0  23.25 0.25 0  23.5 0.25 0  23.75 0.25 0  24 0.25 0  24.25 0.25 0  24.5 0.25 0  24.75 0.25 0  25 0.25 0  0 0.5 0  0.25 0.5 0  0.5 0.5 0  0.75 0.5 0  1 0.5 0  1.25 0.5 0  1.5 0.5 0  1.75 0.5 0  2 0.5 0  2.25 0.5 0  2.5 0.5 0  2.75 0.5 0  3 0.5 0  3.25 0.5 0  3.5 0.5 0  3.75 0.5 0  4 0.5 0  4.25 0.5 0  4.5 0.5 0  4.75 0.5 0  5 0.5 0  5.25 0.5 0  5.5 0.5 0  5.75 0.5 0  6 0.5 0  6.25 0.5 0  6.5 0.5 0  6.75 0.5 0  7 0.5 0  7.25 0.5 0  7.5 0.5 0  7.75 0.5 0  8 0.5 0  8.25 0.5 0  8.5 0.5 0  8.75 0.5 0  9 0.5 0  9.25 0.5 0  9.5 0.5 0  9.75 0.5 0  10 0.5 0  10.25 0.5 0  10.5 0.5 0  10.75 0.5 0  11 0.5 0  11.25 0.5 0  11.5 0.5 0  11.75 0.5 0  12 0.5 0  12.25 0.5 0  12.5 0.5 0  12.75 0.5 0  13 0.5 0  13.25 0.5 0  13.5 0.5 0  13.75 0.5 0  14 0.5 0  14.25 0.5 0  14.5 0.5 0  14.75 0.5 0  15 0.5 0  15.25 0.5 0  15.5 0.5 0  15.75 0.5 0  16 0.5 0  16.25 0.5 0  16.5 0.5 0  16.75 0.5 0  17 0.5 0  17.25 0.5 0  17.5 0.5 0  17.75 0.5 0  18 0.5 0  18.25 0.5 0  18.5 0.5 0  18.75 0.5 0  19 0.5 0  19.25 0.5 0  19.5 0.5 0  19.75 0.5 0  20 0.5 0  20.25 0.5 0  20.5 0.5 0  20.75 0.5 0  21 0.5 0  21.25 0.5 0  21.5 0.5 0  21.75 0.5 0  22 0.5 0  22.25 0.5 0  22.5 0.5 0  22.75 0.5 0  23 0.5 0  23.25 0.5 0  23.5 0.5 0  23.75 0.5 0  24 0.5 0  24.25 0.5 0  24.5 0.5 0  24.75 0.5 0  25 0.5 0  0 0.75 0  0.25 0.75 0  0.5 0.75 0  0.75 0.75 0  1 0.75 0  1.25 0.75 0  1.5 0.75 0  1.75 0.75 0  2 0.75 0  2.25 0.75 0  2.5 0.75 0  2.75 0.75 0  3 0.75 0  3.25 0.75 0  3.5 0.75 0  3.75 0.75 0  4 0.75 0  4.25 0.75 0  4.5 0.75 0  4.75 0.75 0  5 0.75 0  5.25 0.75 0  5.5 0.75 0  5.75 0.75 0  6 0.75 0  6.25 0.75 0  6.5 0.75 0  6.75 0.75 0  7 0.75 0  7.25 0.75 0  7.5 0.75 0  7.75 0.75 0  8 0.75 0  8.25 0.75 0  8.5 0.75 0  8.75 0.75 0  9 0.75 0  9.25 0.75 0  9.5 0.75 0  9.75 0.75 0  10 0.75 0  10.25 0.75 0  10.5 0.75 0  10.75 0.75 0  11 0.75 0  11.25 0.75 0  11.5 0.75 0  11.75 0.75 0  12 0.75 0  12.25 0.75 0  12.5 0.75 0  12.75 0.75 0  13 0.75 0  13.25 0.75 0  13.5 0.75 0  13.75 0.75 0  14 0.75 0  14.25 0.75 0  14.5 0.75 0  14.75 0.75 0  15 0.75 0  15.25 0.75 0  15.5 0.75 0  15.75 0.75 0  16 0.75 0  16.25 0.75 0  16.5 0.75 0  16.75 0.75 0  17 0.75 0  17.25 0.75 0  17.5 0.75 0  17.75 0.75 0  18 0.75 0  18.25 0.75 0  18.5 0.75 0  18.75 0.75 0  19 0.75 0  19.25 0.75 0  19.5 0.75 0  19.75 0.75 0  20 0.75 0  20.25 0.75 0  20.5 0.75 0  20.75 0.75 0  21 0.75 0  21.25 0.75 0  21.5 0.75 0  21.75 0.75 0  22 0.75 0  22.25 0.75 0  22.5 0.75 0  22.75 0.75 0  23 0.75 0  23.25 0.75 0  23.5 0.75 0  23.75 0.75 0  24 0.75 0  24.25 0.75 0  24.5 0.75 0  24.75 0.75 0  25 0.75 0  0 1 0  0.25 1 0  0.5 1 0  0.75 1 0  1 1 0  1.25 1 0  1.5 1 0  1.75 1 0  2 1 0  2.25 1 0  2.5 1 0  2.75 1 0  3 1 0  3.25 1 0  3.5 1 0  3.75 1 0  4 1 0  4.25 1 0  4.5 1 0  4.75 1 0  5 1 0  5.25 1 0  5.5 1 0  5.75 1 0  6 1 0  6.25 1 0  6.5 1 0  6.75 1 0  7 1 0  7.25 1 0  7.5 1 0  7.75 1 0  8 1 0  8.25 1 0  8.5 1 0  8.75 1 0  9 1 0  9.25 1 0  9.5 1 0  9.75 1 0  10 1 0  10.25 1 0  10.5 1 0  10.75 1 0  11 1 0  11.25 1 0  11.5 1 0  11.75 1 0  12 1 0  12.25 1 0  12.5 1 0  12.75 1 0  13 1 0  13.25 1 0  13.5 1 0  13.75 1 0  14 1 0  14.25 1 0  14.5 1 0  14.75 1 0  15 1 0  15.25 1 0  15.5 1 0  15.75 1 0  16 1 0  16.25 1 0  16.5 1 0  16.75 1 0  17 1 0  17.25 1 0  17.5 1 0  17.75 1 0  18 1 0  18.25 1 0  18.5 1 0  18.75 1 0  19 1 0  19.25 1 0  19.5 1 0  19.75 1 0  20 1 0  20.25 1 0  20.5 1 0  20.75 1 0  21 1 0  21.25 1 0  21.5 1 0  21.75 1 0  22 1 0  22.25 1 0  22.5 1 0  22.75 1 0  23 1 0  23.25 1 0  23.5 1 0  23.75 1 0  24 1 0  24.25 1 0  24.5 1 0  24.75 1 0  25 1 0  0 1.25 0  0.25 1.25 0  0.5 1.25 0  0.75 1.25 0  1 1.25 0  1.25 1.25 0  1.5 1.25 0  1.75 1.25 0  2 1.25 0  2.25 1.25 0  2.5 1.25 0  2.75 1.25 0  3 1.25 0  3.25 1.25 0  3.5 1.25 0  3.75 1.25 0  4 1.25 0  4.25 1.25 0  4.5 1.25 0  4.75 1.25 0  5 1.25 0  5.25 1.25 0  5.5 1.25 0  5.75 1.25 0  6 1.25 0  6.25 1.25 0  6.5 1.25 0  6.75 1.25 0  7 1.25 0  7.25 1.25 0  7.5 1.25 0  7.75 1.25 0  8 1.25 0  8.25 1.25 0  8.5 1.25 0  8.75 1.25 0  9 1.25 0  9.25 1.25 0  9.5 1.25 0  9.75 1.25 0  10 1.25 0  10.25 1.25 0  10.5 1.25 0  10.75 1.25 0  11 1.25 0  11.25 1.25 0  11.5 1.25 0  11.75 1.25 0  12 1.25 0  12.25 1.25 0  12.5 1.25 0  12.75 1.25 0  13 1.25 0  13.25 1.25 0  13.5 1.25 0  13.75 1.25 0  14 1.25 0  14.25 1.25 0  14.5 1.25 0  14.75 1.25 0  15 1.25 0  15.25 1.25 0  15.5 1.25 0  15.75 1.25 0  16 1.25 0  16.25 1.25 0  16.5 1.25 0  16.75 1.25 0  17 1.25 0  17.25 1.25 0  17.5 1.25 0  17.75 1.25 0  18 1.25 0  18.25 1.25 0  18.5 1.25 0  18.75 1.25 0  19 1.25 0  19.25 1.25 0  19.5 1.25 0  19.75 1.25 0  20 1.25 0  20.25 1.25 0  20.5 1.25 0  20.75 1.25 0  21 1.25 0  21.25 1.25 0  21.5 1.25 0  21.75 1.25 0  22 1.25 0  22.25 1.25 0  22.5 1.25 0  22.75 1.25 0  23 1.25 0  23.25 1.25 0  23.5 1.25 0  23.75 1.25 0  24 1.25 0  24.25 1.25 0  24.5 1.25 0  24.75 1.25 0  25 1.25 0  0 1.5 0  0.25 1.5 0  0.5 1.5 0  0.75 1.5 0  1 1.5 0  1.25 1.5 0  1.5 1.5 0  1.75 1.5 0  2 1.5 0  2.25 1.5 0  2.5 1.5 0  2.75 1.5 0  3 1.5 0  3.25 1.5 0  3.5 1.5 0  3.75 1.5 0  4 1.5 0  4.25 1.5 0  4.5 1.5 0  4.75 1.5 0  5 1.5 0  5.25 1.5 0  5.5 1.5 0  5.75 1.5 0  6 1.5 0  6.25 1.5 0  6.5 1.5 0  6.75 1.5 0  7 1.5 0  7.25 1.5 0  7.5 1.5 0  7.75 1.5 0  8 1.5 0  8.25 1.5 0  8.5 1.5 0  8.75 1.5 0  9 1.5 0  9.25 1.5 0  9.5 1.5 0  9.75 1.5 0  10 1.5 0  10.25 1.5 0  10.5 1.5 0  10.75 1.5 0  11 1.5 0  11.25 1.5 0  11.5 1.5 0  11.75 1.5 0  12 1.5 0  12.25 1.5 0  12.5 1.5 0  12.75 1.5 0  13 1.5 0  13.25 1.5 0  13.5 1.5 0  13.75 1.5 0  14 1.5 0  14.25 1.5 0  14.5 1.5 0  14.75 1.5 0  15 1.5 0  15.25 1.5 0  15.5 1.5 0  15.75 1.5 0  16 1.5 0  16.25 1.5 0  16.5 1.5 0  16.75 1.5 0  17 1.5 0  17.25 1.5 0  17.5 1.5 0  17.75 1.5 0  18 1.5 0  18.25 1.5 0  18.5 1.5 0  18.75 1.5 0  19 1.5 0  19.25 1.5 0  19.5 1.5 0  19.75 1.5 0  20 1.5 0  20.25 1.5 0  20.5 1.5 0  20.75 1.5 0  21 1.5 0  21.25 1.5 0  21.5 1.5 0  21.75 1.5 0  22 1.5 0  22.25 1.5 0  22.5 1.5 0  22.75 1.5 0  23 1.5 0  23.25 1.5 0  23.5 1.5 0  23.75 1.5 0  24 1.5 0  24.25 1.5 0  24.5 1.5 0  24.75 1.5 0  25 1.5 0  0 1.75 0  0.25 1.75 0  0.5 1.75 0  0.75 1.75 0  1 1.75 0  1.25 1.75 0  1.5 1.75 0  1.75 1.75 0  2 1.75 0  2.25 1.75 0  2.5 1.75 0  2.75 1.75 0  3 1.75 0  3.25 1.75 0  3.5 1.75 0  3.75 1.75 0  4 1.75 0  4.25 1.75 0  4.5 1.75 0  4.75 1.75 0  5 1.75 0  5.25 1.75 0  5.5 1.75 0  5.75 1.75 0  6 1.75 0  6.25 1.75 0  6.5 1.75 0  6.75 1.75 0  7 1.75 0  7.25 1.75 0  7.5 1.75 0  7.75 1.75 0  8 1.75 0  8.25 1.75 0  8.5 1.75 0  8.75 1.75 0  9 1.75 0  9.25 1.75 0  9.5 1.75 0  9.75 1.75 0  10 1.75 0  10.25 1.75 0  10.5 1.75 0  10.75 1.75 0  11 1.75 0  11.25 1.75 0  11.5 1.75 0  11.75 1.75 0  12 1.75 0  12.25 1.75 0  12.5 1.75 0  12.75 1.75 0  13 1.75 0  13.25 1.75 0  13.5 1.75 0  13.75 1.75 0  14 1.75 0  14.25 1.75 0  14.5 1.75 0  14.75 1.75 0  15 1.75 0  15.25 1.75 0  15.5 1.75 0  15.75 1.75 0  16 1.75 0  16.25 1.75 0  16.5 1.75 0  16.75 1.75 0  17 1.75 0  17.25 1.75 0  17.5 1.75 0  17.75 1.75 0  18 1.75 0  18.25 1.75 0  18.5 1.75 0  18.75 1.75 0  19 1.75 0  19.25 1.75 0  19.5 1.75 0  19.75 1.75 0  20 1.75 0  20.25 1.75 0  20.5 1.75 0  20.75 1.75 0  21 1.75 0  21.25 1.75 0  21.5 1.75 0  21.75 1.75 0  22 1.75 0  22.25 1.75 0  22.5 1.75 0  22.75 1.75 0  23 1.75 0  23.25 1.75 0  23.5 1.75 0  23.75 1.75 0  24 1.75 0  24.25 1.75 0  24.5 1.75 0  24.75 1.75 0  25 1.75 0  0 2 0  0.25 2 0  0.5 2 0  0.75 2 0  1 2 0  1.25 2 0  1.5 2 0  1.75 2 0  2 2 0  2.25 2 0  2.5 2 0  2.75 2 0  3 2 0  3.25 2 0  3.5 2 0  3.75 2 0  4 2 0  4.25 2 0  4.5 2 0  4.75 2 0  5 2 0  5.25 2 0  5.5 2 0  5.75 2 0  6 2 0  6.25 2 0  6.5 2 0  6.75 2 0  7 2 0  7.25 2 0  7.5 2 0  7.75 2 0  8 2 0  8.25 2 0  8.5 2 0  8.75 2 0  9 2 0  9.25 2 0  9.5 2 0  9.75 2 0  10 2 0  10.25 2 0  10.5 2 0  10.75 2 0  11 2 0  11.25 2 0 
[...]
<PointData  Scalars="f_23"> 
<DataArray  type="Float64"  Name="f_23"  format="ascii">7.9730623356147667e-01  7.9211603381353601e-01  7.8068565188190797e-01  7.6179043901679810e-01  7.3428671297765213e-01  6.9683103591086548e-01  6.4789786674767624e-01  5.8593861865313779e-01  5.0966439428556332e-01  4.1843950493314996e-01  3.1272599698354481e-01  1.9445102649771295e-01  6.7123523721182549e-02  -6.4438806180595776e-02  -1.9477338343219969e-01  -3.1864668062214241e-01  -4.3184946763525062e-01  -5.3167009856151293e-01  -6.1696468738823973e-01  -6.8790778339148684e-01  -7.4558657790754024e-01  -7.9158811973885024e-01  -8.2766822733869694e-01  -8.5552991190826988e-01  -8.7670063251759456e-01  -8.9248231631173436e-01  -9.0394743802138577e-01  -9.1196018512052057e-01  -9.1720860102623269e-01  -9.2023928220417783e-01  -9.2149014460714418e-01  -9.2131918497751430e-01  -9.2002847414876865e-01  -9.1788323829184670e-01  -9.1512612014115624e-01  -9.1198678061631666e-01  -9.0868704131949762e-01  -9.0544186108422720e-01  -9.0245661764291374e-01  -8.9992141826620065e-01  -8.9800344396089693e-01  -8.9683856851348320e-01  -8.9652360809903731e-01  -8.9711048829023610e-01  -8.9860334090084715e-01  -9.0095909183820755e-01  -9.0409154913507517e-01  -9.0787845201633788e-01  -9.1217050097913965e-01  -9.1680112963960103e-01  -9.2159572742342288e-01  -9.2637915256086234e-01  -9.3098062235741041e-01  -9.3523534890884308e-01  -9.3898252311708719e-01  -9.4205937703059461e-01  -9.4429103973514816e-01  -9.4547573778804161e-01  -9.4536459540127493e-01  -9.4363490889254997e-01  -9.3985539696866016e-01  -9.3344174360928278e-01  -9.2360110120996552e-01  -9.0926574954996264e-01  -8.8901990593595981e-01  -8.6103139622936764e-01  -8.2301343354399381e-01  -7.7226191832400692e-01  -7.0583663039986022e-01  -6.2096578650253142e-01  -5.1572221941815188e-01  -3.8990881546140632e-01  -2.4589886975843361e-01  -8.9000621418049444e-02  7.3050728990009681e-02  2.3150246169534103e-01  3.7840123603031589e-01  5.0806396654493369e-01  6.1768509276885042e-01  7.0707115376627538e-01  7.7786605594896807e-01  8.3268585309621834e-01  8.7442712086583563e-01  9.0583008091227724e-01  9.2926396314239601e-01  9.4666326476814966e-01  9.5954833466406952e-01  9.6908336453335497e-01  9.7614409856437201e-01  9.8138137752319365e-01  9.8527499526330542e-01  9.8817677892231903e-01  9.9034382885013916e-01  9.9196356386509799e-01  9.9317228408507841e-01  9.9406875967986252e-01  9.9472406647049616e-01  9.9518859742166776e-01  9.9549688721188767e-01  9.9567047795706354e-01  9.9571793774615225e-01  7.8888719414132780e-01  7.8481879693644818e-01  7.7349813275948875e-01  7.5441415942573897e-01  7.2659178455087436e-01  6.8874686379974659e-01  6.3939799235577532e-01  5.7704768028109554e-01  5.0046823999581391e-01  4.0908925847851374e-01  3.0342934251001108e-01  1.8544798356362555e-01  5.8650861337178707e-02  -7.2183887877711739e-02  -2.0165852057737632e-01  -3.2461237570040952e-01  -4.3690177802339392e-01  -5.3586471693722204e-01  -6.2038902857412881e-01  -6.9066504076380153e-01  -7.4778329419813838e-01  -7.9332551139124852e-01  -8.2903692812157870e-01  -8.5660751710050709e-01  -8.7755128910994640e-01  -8.9315761087770362e-01  -9.0448795531273340e-01  -9.1239728591906477e-01  -9.1756613968713796e-01  -9.2053512054120168e-01  -9.2173741155036859e-01  -9.2152728691253316e-01  -9.2020388960156807e-01  -9.1803014236967406e-01  -9.1524688581883484e-01  -9.1208239972467420e-01  -9.0875750007932021e-01  -9.0548649429430128e-01  -9.0247445301880280e-01  -8.9991150917348772e-01  -8.9796517675188325e-01  -8.9677192213226908e-01  -8.9642934065410107e-01  -8.9699022903467507e-01  -8.9845957605936733e-01  -9.0079504680719924e-01  -9.0391098434766182e-01  -9.0768540153681254e-01  -9.1196898885426958e-01  -9.1659489804215333e-01  -9.2138800341125593e-01  -9.2617246903021477e-01  -9.3077669629524973e-01  -9.3503500889243496e-01  -9.3878566986943512e-01  -9.4186495642807533e-01  -9.4409700697737919e-01  -9.4527899434209117e-01  -9.4516088728710301e-01  -9.4341868777276594e-01  -9.3961966849167067e-01  -9.3317796750996973e-01  -9.2329927393232314e-01  -9.0891489939664682e-01  -8.8860935370177041e-01  -8.6055322525369582e-01  -8.2246652142596677e-01  -7.7165732792806307e-01  -7.0520282719100702e-01  -6.2035013571132946e-01  -5.1518383961614356e-01  -3.8949999911723582e-01  -2.4564010196944019e-01  -8.8863990347433822e-02  7.3134277413326634e-02  2.3161190250699246e-01  3.7858986091396224e-01  5.0834209156337196e-01  6.1802723839422979e-01  7.0743633641022696e-01  7.7821635346069395e-01  8.3299592151930413e-01  8.7468534314774238e-01  9.0603528854613158e-01  9.2942116643305928e-01  9.4678016218557759e-01  9.5963306347555544e-01  9.6914331621799910e-01  9.7618544957738262e-01  9.8140902594935642e-01  9.8529269085990301e-01  9.8818732145148702e-01  9.9034927027837460e-01  9.9196538655690580e-01  9.9317154708464761e-01  9.9406621579926513e-01  9.9472026118986479e-01  9.9518397966357564e-01  9.9549204070007524e-01  9.9566694922450605e-01  9.9572193952097032e-01  7.6749162958996031e-01  7.6352506887239646e-01  7.5193722713019240e-01  7.3223335623933750e-01  7.0351216782726833e-01  6.6456717666973719e-01  6.1401326585314941e-01  5.5048173704690295e-01  4.7290984181186491e-01  3.8091732065902184e-01  2.7520974709138085e-01  1.5788771465035878e-01  3.2508083824370260e-02  -9.6215501476780443e-02  -2.2305731350897198e-01  -3.4309443909607490e-01  -4.5242895743533990e-01  -5.4860274433901790e-01  -6.3063908623232701e-01  -6.9879335256361041e-01  -7.5416482933036955e-01  -7.9830740305716941e-01  -8.3291985291975790e-01  -8.5964010365730581e-01  -8.7993240328075228e-01  -8.9504249960967575e-01  -9.0599562798586064e-01  -9.1361766657669141e-01  -9.1856631251868281e-01  -9.2136446255423654e-01  -9.2243165488387724e-01  -9.2211166401584321e-01  -9.2069554845390456e-01  -9.1844001395386365e-01  -9.1558116329252814e-01  -9.1234375860732930e-01  -9.0894615584472072e-01  -9.0560115997394652e-01  -9.0251322624033647e-01  -8.9987268759052785e-01  -8.9784797609214251e-01  -8.9657705553039579e-01  -8.9615941432532731e-01  -8.9664991861998133e-01  -8.9805556839331824e-01  -9.0033575898503582e-01  -9.0340609957460616e-01  -9.0714528294166918e-01  -9.1140404344575054e-01  -9.1601496132918225e-01  -9.2080180210345930e-01  -9.2558719837025138e-01  -9.3019772480213747e-01  -9.3446570120342021e-01  -9.3822730124316089e-01  -9.4131668190685913e-01  -9.4355584435715834e-01  -9.4473978239797918e-01  -9.4461618879598686e-01  -9.4285862158601708e-01  -9.3903167909104623e-01  -9.3254657948292830e-01  -9.2260593992904361e-01  -9.0813813945574073e-01  -8.8772549753758823e-01  -8.5953817575583913e-01  -8.2129897159722898e-01  -7.7032362562654777e-01  -7.0370299922103041e-01  -6.1870341343895896e-01  -5.1343083858452765e-01  -3.8769869879681546e-01  -2.4385523293658964e-01  -8.7153823902471950e-02  7.4727013121067110e-02  2.3306089743031508e-01  3.7988019668397566e-01  5.0946526783234380e-01  6.1897982450284439e-01  7.0822122577613944e-01  7.7884374068182105e-01  8.3348241820375635e-01  8.7505155741066776e-01  9.0630301027069748e-01  9.2961107731983839e-01  9.4691043099084860e-01  9.5971876408109136e-01  9.6919642576092180e-01  9.7621517267483637e-01  9.8142225274043704e-01  9.8529446945034571e-01  9.8818128330208854e-01  9.9033798505455728e-01  9.9195064455923343e-01  9.9315457821309516e-01  9.9404785917929372e-01  9.9470110353448893e-01  9.9516448749680975e-01  9.9547272259213848e-01  9.9564855664566609e-01  9.9570527169165646e-01  7.3128486904227807e-01  7.2714138492142733e-01  7.1495709697753507e-01  6.9421866963677514e-01  6.6407919391066639e-01  6.2343305892037815e-01  5.7104579261863553e-01  5.0575742899593701e-01  4.2677095515496999e-01  3.3400784722297200e-01  2.2846473181124161e-01  1.1245516198376590e-01  -1.0397166990230713e-02  -1.3549627859108074e-01  -2.5790355635702489e-01  -3.7308483743550885e-01  -4.7753988787768847e-01  -5.6913731757477115e-01  -6.4711402017973174e-01  -7.1182367120290291e-01  -7.6437257219799293e-01  -8.0626325892544493e-01  -8.3911445584290223e-01  -8.6447654373809735e-01  -8.8373128329706563e-01  -8.9805289013703149e-01  -9.0840767484202578e-01  -9.1557454487593737e-01  -9.2017451683701168e-01  -9.2270217552274647e-01  -9.2355531850801087e-01  -9.2306103747795243e-01  -9.2149757554635903e-01  -9.1911180445107343e-01  -9.1613234888297712e-01  -9.1277843144763726e-01  -9.0926454301041804e-01  -9.0580113271692264e-01  -9.0259169094579261e-01  -8.9982685852983491e-01  -8.9767649266185257e-01  -8.9628088336175338e-01  -8.9574246419324322e-01  -8.9611933059907323e-01  -8.9742163856263002e-01  -8.9961152574667858e-01  -9.0260664738855212e-01  -9.0628685378629759e-01  -9.1050306357250121e-01  -9.1508708983826670e-01  -9.1986108994911520e-01  -9.2464541664721478e-01  -9.2926388643022528e-01  -9.3354576708895243e-01  -9.3732403560495314e-01  -9.4042960425939237e-01  -9.4268121800047711e-01  -9.4387058019257986e-01  -9.4374198535737586e-01  -9.4196537672908198e-01  -9.3810140245892892e-01  -9.3155690588832418e-01  -9.2152970736854034e-01  -9.0694315740041931e-01  -8.8637482954913094e-01  -8.5799143069426731e-01  -8.1951525702987038e-01  -7.6826684950440760e-01  -7.0134989819528815e-01  -6.1605376960096025e-01  -5.1051771067104257e-01  -3.8459461727880950e-01  -2.4066959418575185e-01  -8.4018909491050786e-02  7.7678751602045903e-02  2.3572047741588717e-01  3.8217801735693679e-01  5.1137504877222006e-01  6.2051226635128720e-01  7.0941240273504524e-01  7.7974303834303105e-01  8.3414285251612985e-01  8.7552335636848910e-01  9.0663014915025264e-01  9.2982999018680246e-01  9.4705009245518090e-01  9.5980149775386370e-01  9.6923899998712282e-01  9.7622992058985003e-01  9.8141808159787491e-01  9.8527770603814058e-01  9.8815634898597982e-01  9.9030791717709432e-01  9.9191748995693740e-01  9.9311968607282997e-01  9.9401209850610006e-01  9.9466502733466233e-01  9.9512846103579500e-01  9.9543701991136679e-01  9.9561338254617848e-01  9.9567053485708379e-01  6.7832721861844036e-01  6.7392151051189131e-01  6.6092626515283959e-01  6.3884901758833990e-01  6.0692451833929428e-01  5.6419170802170915e-01  5.0963115312867047e-01  4.4237349974930196e-01  3.6197841845302242e-01  2.6875481721482425e-01  1.6405184217072560e-01  5.0414515463585809e-02  -6.8502080559246961e-02  -1.8830610389590283e-01  -3.0446604975961300e-01  -4.1296420888496621e-01  -5.1080889460029733e-01  -5.9627387892394301e-01  -6.6885144795602069e-01  -7.2900351183905454e-01  -7.7783074615695569e-01  -8.1675887563437810e-01  -8.4729614224535843e-01  -8.7087519937682012e-01  -8.8876822459751825e-01  -9.0205503088311467e-01  -9.1162445746011767e-01  -9.1819378611171631e-01  -9.2233595494772824e-01  -9.2450844361416296e-01  -9.2508053961744530e-01  -9.2435742928719444e-01  -9.2260049540014311e-01  -9.2004363635887232e-01  -9.1690557511189330e-01  -9.1339816193835910e-01  -9.0973070420101265e-01  -9.0611044649984140e-01  -9.0273950663223579e-01  -8.9980883936577793e-01  -8.9749010890085590e-01  -8.9592663223933477e-01  -8.9522472837171563e-01  -8.9544680252837872e-01  -8.9660727573213594e-01  -8.9867205306338205e-01  -9.0156167656991182e-01  -9.0515773373673181e-01  -9.0931160078072126e-01  -9.1385427936631181e-01  -9.1860597680623512e-01  -9.2338417029307363e-01  -9.2800912649593759e-01  -9.3230613485515657e-01  -9.3610397002928758e-01  -9.3922925705844507e-01  -9.4149643019343077e-01  -9.4269284138001841e-01  -9.4255830508293326e-01  -9.4075801380608948e-01  -9.3684742488620354e-01  -9.3022759656366560e-01  -9.2008989992947765e-01  -9.0535069821166025e-01  -8.8458053479422483e-01  -8.5594015251742794e-01  -8.1714896543513660e-01  -7.6553086380048563e-01  -6.9820328460394432e-01  -6.1248398430154571e-01  -5.0655733299160144e-01  -3.8033467025529888e-01  -2.3626128900930130e-01  -7.9657040603642093e-02  8.1789973925982945e-02  2.3940796125261832e-01  3.8533045022826540e-01  5.1395285884371733e-01  6.2253754410277273e-01  7.1094788270739018e-01  7.8087022026145725e-01  8.3494532834288160e-01  8.7607687077964791e-01  9.0699823359627796e-01  9.3006321739063857e-01  9.4718724506768415e-01  9.5987149896159341e-01  9.6926295235186866e-01  9.7622294144229527e-01  9.8139082382678089e-01  9.8523755634425925e-01  9.8810834101123790e-01  9.9025541127462358e-01  9.9186267083530621e-01  9.9306392292699175e-01  9.9395620387929473e-01  9.9460944243835947e-01  9.9507338609227480e-01  9.9538249567430703e-01  9.9555931095229133e-01  9.9561661867882290e-01  6.0660959589588892e-01  6.0194272468865695e-01  5.8805430923506041e-01  5.6451630377487638e-01  5.3069147510380543e-01  4.8582101257165355e-01  4.2917013827622591e-01  3.6023503560062575e-01  2.7899965047425784e-01  1.8620402997194035e-01  8.3553923717360035e-02  -2.6217841520427332e-02  -1.3951119444789489e-01  -2.5224942013743618e-01  -3.6041927755890413e-01  -4.6060988769441175e-01  -5.5039695065333982e-01  -6.2848659483746594e-01  -6.9462864043196904e-01  -7.4937896148216498e-01  -7.9380960897409203e-01  -8.2924338523009322e-01  -8.5705239369604480e-01  -8.7852832411130788e-01  -8.9481380748466399e-01  -9.0687771620459035e-01  -9.1551806367010724e-01  -9.2137990761352817e-01  -9.2497978462641628e-01  -9.2673156250424515e-01  -9.2697092797466962e-01  -9.2597715909489020e-01  -9.2399160760554722e-01  -9.2123267117007157e-01  -9.1790715582774118e-01  -9.1421795343537660e-01  -9.1036798489525572e-01  -9.0656045043050093e-01  -9.0299561257747951e-01  -8.9986461057890954e-01  -8.9734112640357899e-01  -8.9557202412908798e-01  -8.9466828380755947e-01  -8.9469757485796242e-01  -8.9567962190431794e-01  -8.9758511729053492e-01  -9.0033839193396326e-01  -9.0382347156888376e-01  -9.0789263220327132e-01  -9.1237621997003615e-01  -9.1709236452254761e-01  -9.2185528462079358e-01  -9.2648110445053355e-01  -9.3079038592030805e-01  -9.3460684749839251e-01  -9.3775191141989833e-01  -9.4003475300870110e-01  -9.4123740423403557e-01  -9.4109420554489431e-01  -9.3926455777516016e-01  -9.3529760391461170e-01  -9.2858736623050031e-01  -9.1831734424233025e-01  -9.0339529639055982e-01  -8.8238295761618657e-01  -8.5343332703057206e-01  -8.1426154141019103e-01  -7.6219456368676008e-01  -6.9436557162119095e-01  -6.0812640541577878e-01  -5.0171708914113411e-01  -3.7512254070875928e-01  -2.3086523033580089e-01  -7.4322090155301515e-02  8.6805256042341239e-02  2.4388432039719535e-01  3.8912846887061697e-01  5.1702626487922776e-01  6.2491973130403711e-01  7.1272377617483262e-01  7.8214718814185535e-01  8.3583138384413491e-01  8.7666812074281897e-01  9.0737382307477543e-01  9.3028498692468742e-01  9.4730173873352275e-01  9.5991278368576249e-01  9.6925541972289131e-01  9.7618373178369366e-01  9.8133177288980700e-01  9.8516668898748261e-01  9.8803098330497063e-01  9.9017500127748104e-01  9.9178134066134882e-01  9.9298291172645270e-01  9.9387614796347190e-01  9.9453057671668688e-01  9.9499568036472330e-01  9.9530573990718174e-01  9.9548315741424964e-01  9.9554059564726793e-01  5.1456520226150482e-01  5.0970569469602622e-01  4.9500146507889242e-01  4.7013145780158122e-01  4.3463787784693830e-01  3.8802327146056131e-01  3.2989848573572178e-01  2.6017660449738311e-01  1.7929227468400083e-01  8.8403472847516845e-02  -1.0487648016967298e-02  -1.1456155746322802e-01  -2.2039466941958508e-01  -3.2433907606157747e-01  -4.2298168194616009e-01  -5.1355814677179190e-01  -5.9421363654068204e-01  -6.6406435857799007e-01  -7.2308501019336158e-01  -7.7189215468341565e-01  -8.1150005817042781e-01  -8.4310476709146409e-01  -8.6792326971021716e-01  -8.8709123533950618e-01  -9.0160974482132727e-01  -9.1232711441316583e-01  -9.1994281262861544e-01  -9.2502347534450424e-01  -9.2802426004750771e-01  -9.2931141579449117e-01  -9.2918378431736370e-01  -9.2789208333202600e-01  -9.2565543873299549e-01  -9.2267490907933292e-01  -9.1914383285083123e-01  -9.1525484107159427e-01  -9.1120339974735243e-01  -9.0718783558673588e-01  -9.0340598356661195e-01  -9.0004887279497259e-01  -8.9729220058096082e-01  -8.9528666688466307e-01  -8.9414846965299732e-01  -8.9395131892827395e-01  -8.9472116725187067e-01  -8.9643447820275002e-01  -8.9902032094217765e-01  -9.0236598598876849e-01  -9.0632528165965964e-01  -9.1072829075673012e-01  -9.1539119892402609e-01  -9.2012484978424869e-01  -9.2474088702062607e-01  -9.2905462762283719e-01  -9.3288408345284601e-01  -9.3604473364257890e-01  -9.3833969867133604e-01  -9.3954486095637790e-01  -9.3938823217804923e-01  -9.3752253745536407e-01  -9.3348967840722441e-01  -9.2667565395497165e-01  -9.1625503389345286e-01  -9.0112585816809987e-01  -8.7983995640047663e-01  -8.5054168177352552e-01  -8.1094153195149810e-01  -7.5837028882638535e-01  -6.8997950135113761e-01  -6.0316040588078457e-01  -4.9621703253119392e-01  -3.6921849737622547e-01  -2.2477491676726846e-01  -6.8326922479228294e-02  9.2410900196885762e-02  2.4885391898616546e-01  3.9330926935800126e-01  5.2037332205624010e-01  6.2747903143075900e-01  7.1459885463341533e-01  7.8346522216322356e-01  8.3671820111177753e-01  8.7723417837445961e-01  9.0770892840401540e-01  9.3045840442698924e-01  9.4736489024055714e-01  9.5990275476793285e-01  9.6919833566808644e-01  9.7609761740370338e-01  9.8122880969216952e-01  9.8505492018847784e-01  9.8791556455681784e-01  9.9005909928140123e-01  9.9166676872813131e-01  9.9287057350314634e-01  9.9376634344708592e-01  9.9442321019366686e-01  9.9489039837164384e-01  9.9520201880323189e-01  9.9538035572452910e-01  9.9543798846248333e-01  4.0184202986392525e-01  3.9691541100419075e-01  3.8165394181263051e-01  3.5587963628315783e-01  3.1935705511936874e-01  2.7189350975500204e-01  2.1347859610170761e-01  1.4445096771399416e-01  6.5666284875638331e-02  -2.1375194698181329e-02  -1.1449152206421948e-01  -2.1091384387042236e-01  -3.0752265088804825e-01  -4.0118741266863933e-01  -4.8912927281157492e-01  -5.6921365897214515e-01  -6.4010544142893777e-01  -7.0126978190098410e-01  -7.5285019821192256e-01  -7.9548085566536408e-01  -8.3008900626567317e-01  -8.5772578894268892e-01  -8.7944235386158753e-01  -8.9621201063109734e-01  -9.0889029598109361e-01  -9.1820215110117132e-01  -9.2474626412412009e-01  -9.2900893069661317e-01  -9.3138221870178639e-01  -9.3218321029060569e-01  -9.3167249057928980e-01  -9.3007091955966537e-01  -9.2757419247502526e-01  -9.2436489825809842e-01  -9.2062184089780763e-01  -9.1652638793716878e-01  -9.1226562645046905e-01  -9.0803219219350739e-01  -9.0402082069120759e-01  -9.0042194899739869e-01  -8.9741303988246079e-01  -8.9514864199691058e-01  -8.9375045733914105e-01  -8.9329878067170465e-01  -8.9382655112707576e-01  -8.9531690866724301e-01  -8.9770462749439928e-01  -9.0088120110537218e-01  -9.0470279624413785e-01  -9.0899988029060608e-01  -9.1358712267327646e-01  -9.1827218408363298e-01  -9.2286219299523953e-01  -9.2716698704055045e-01  -9.3099847565529137e-01  -9.3416567980580512e-01  -9.3646507063322237e-01  -9.3766574048379148e-01  -9.3748871099743258e-01  -9.3557936736366354e-01  -9.3147171615082436e-01  -9.2454310488012448e-01  -9.1395859748000641e-01  -8.9860604307314484e-01  -8.7702709499412668e-01  -8.4735755786569744e-01  -8.0730401085842496e-01  -7.5420273192623777e-01  -6.8522660787753376e-01  -5.9781066732811350e-01  -4.9032841207364769e-01  -3.6293854897983463e-01  -2.1834228839799169e-01  -6.2043548374755488e-02  9.8235205994834832e-02  2.5396583805823647e-01  3.9755879654769544e-01  5.2372591793443923e-01  6.2999528091163959e-01  7.1639761266447011e-01  7.8468725828978869e-01  8.3750002828852488e-01  8.7769384849424237e-01  9.0794114163554329e-01  9.3053522294189384e-01  9.4733904625214038e-01  9.5981166545159291e-01  9.6906786185180904e-01  9.7594519055427731e-01  9.8106586438701215e-01  9.8488870737659451e-01  9.8775046445403769e-01  9.8989755194329543e-01  9.9150992256967940e-01  9.9271873052640425e-01  9.9361926024331571e-01  9.9428029768708504e-01  9.9475085096940330e-01  9.9506489490238037e-01  9.9524462633041255e-01  9.9530256877424983e-01  2.7012378206277010e-01  