<?xml version="1.0"?>
<VTKFile type="UnstructuredGrid"  version="0.1"  >
<UnstructuredGrid>
<Piece  NumberOfPoints="10201" NumberOfCells="20000">
<Points>
<DataArray  type="Float64"  NumberOfComponents="3"  format="ascii">0 0 0  0.25 0 0  0.5 0 0  0.75 0 0  1 0 0  1.25 0 0  1.5 0 0  1.75 0 0  2 0 0  2.25 0 0  2.5 0 0  2.75 0 0  3 0 0  3.25 0 0  3.5 0 0  3.75 0 0  4 0 0  4.25 0 0  4.5 0 0  4.75 0 0  5 0 0  5.25 0 0  5.5 0 0  5.75 0 0  6 0 0  6.25 0 0  6.5 0 0  6.75 0 0  7 0 0  7.25 0 0  7.5 0 0  7.75 0 0  8 0 0  8.25 0 0  8.5 0 0  8.75 0 0  9 0 0  9.25 0 0  9.5 0 0  9.75 0 0  10 0 0  10.25 0 0  10.5 0 0  10.75 0 0  11 0 0  11.25 0 0  11.5 0 0  11.75 0 0  12 0 0  12.25 0 0  12.5 0 0  12.75 0 0  13 0 0  13.25 0 0  13.5 0 0  13.75 0 0  14 0 0  14.25 0 0  14.5 0 0  14.75 0 0  15 0 0  15.25 0 0  15.5 0 0  15.75 0 0  16 0 0  16.25 0 0  16.5 0 0  16.75 0 0  17 0 0  17.25 0 0  17.5 0 0  17.75 0 0  18 0 0  18.25 0 0  18.5 0 0  18.75 0 0  19 0 0  19.25 0 0  19.5 0 0  19.75 0 0  20 0 0  20.25 0 0  20.5 0 0  20.75 0 0  21 0 0  21.25 0 0  21.5 0 0  21.75 0 0  22 0 0  22.25 0 0  22.5 0 0  22.75 0 0  23 0 0  23.25 0 0  23.5 0 0  23.75 0 0  24 0 0  24.25 0 0  24.5 0 0  24.75 0 0  25 0 0  0 0.25 0  0.25 0.25 0  0.5 0.25 0  0.75 0.25 0  1 0.25 0  1.25 0.25 0  1.5 0.25 0  1.75 0.25 0  2 0.25 0  2.25 0.25 0  2.5 0.25 0  2.75 0.25 0  3 0.25 0  3.25 0.25 0  3.5 0.25 0  3.75 0.25 0  4 0.25 0  4.25 0.25 0  4.5 0.25 0  4.75 0.25 0  5 0.25 0  5.25 0.25 0  5.5 0.25 0  5.75 0.25 0  6 0.25 0  6.25 0.25 0  6.5 0.25 0  6.75 0.25 0  7 0.25 0  7.25 0.25 0  7.5 0.25 0  7.75 0.25 0  8 0.25 0  8.25 0.25 0  8.5 0.25 0  8.75 0.25 0  9 0.25 0  9.25 0.25 0  9.5 0.25 0  9.75 0.25 0  10 0.25 0  10.25 0.25 0  10.5 0.25 0  10.75 0.25 0  11 0.25 0  11.25 0.25 0  11.5 0.25 0  11.75 0.25 0  12 0.25 0  12.25 0.25 0  12.5 0.25 0  12.75 0.25 0  13 0.25 0  13.25 0.25 0  13.5 0.25 0  13.75 0.25 0  14 0.25 0  14.25 0.25 0  14.5 0.25 0  14.75 0.25 0  15 0.25 0  15.25 0.25 0  15.5 0.25 0  15.75 0.25 0  16 0.25 0  16.25 0.25 0  16.5 0.25 0  16.75 0.25 0  17 0.25 0  17.25 0.25 0  17.5 0.25 0  17.75 0.25 0  18 0.25 0  18.25 0.25 0  18.5 0.25 0  18.75 0.25 0  19 0.25 0  19.25 0.25 0  19.5 0.25 0  19.75 0.25 0  20 0.25 0  20.25 0.25 0  20.5 0.25 0  20.75 0.25 0  21 0.25 0  21.25 0.25 0  21.5 0.25 0  21.75 0.25 0  22 0.25 0  22.25 0.25 0  22.5 0.25 0  22.75 0.25 0  23 0.25 0  23.25 0.25 0  23.5 0.25 0  23.75 0.25 0  24 0.25 0  24.25 0.25 0  24.5 0.25 0  24.75 0.25 0  25 0.25 0  0 0.5 0  0.25 0.5 0  0.5 0.5 0  0.75 0.5 0  1 0.5 0  1.25 0.5 0  1.5 0.5 0  1.75 0.5 0  2 0.5 0  2.25 0.5 0  2.5 0.5 0  2.75 0.5 0  3 0.5 0  3.25 0.5 0  3.5 0.5 0  3.75 0.5 0  4 0.5 0  4.25 0.5 0  4.5 0.5 0  4.75 0.5 0  5 0.5 0  5.25 0.5 0  5.5 0.5 0  5.75 0.5 0  6 0.5 0  6.25 0.5 0  6.5 0.5 0  6.75 0.5 0  7 0.5 0  7.25 0.5 0  7.5 0.5 0  7.75 0.5 0  8 0.5 0  8.25 0.5 0  8.5 0.5 0  8.75 0.5 0  9 0.5 0  9.25 0.5 0  9.5 0.5 0  9.75 0.5 0  10 0.5 0  10.25 0.5 0  10.5 0.5 0  10.75 0.5 0  11 0.5 0  11.25 0.5 0  11.5 0.5 0  11.75 0.5 0  12 0.5 0  12.25 0.5 0  12.5 0.5 0  12.75 0.5 0  13 0.5 0  13.25 0.5 0  13.5 0.5 0  13.75 0.5 0  14 0.5 0  14.25 0.5 0  14.5 0.5 0  14.75 0.5 0  15 0.5 0  15.25 0.5 0  15.5 0.5 0  15.75 0.5 0  16 0.5 0  16.25 0.5 0  16.5 0.5 0  16.75 0.5 0  17 0.5 0  17.25 0.5 0  17.5 0.5 0  17.75 0.5 0  18 0.5 0  18.25 0.5 0  18.5 0.5 0  18.75 0.5 0  19 0.5 0  19.25 0.5 0  19.5 0.5 0  19.75 0.5 0  20 0.5 0  20.25 0.5 0  20.5 0.5 0  20.75 0.5 0  21 0.5 0  21.25 0.5 0  21.5 0.5 0  21.75 0.5 0  22 0.5 0  22.25 0.5 0  22.5 0.5 0  22.75 0.5 0  23 0.5 0  23.25 0.5 0  23.5 0.5 0  23.75 0.5 0  24 0.5 0  24.25 0.5 0  24.5 0.5 0  24.75 0.5 0  25 0.5 0  0 0.75 0  0.25 0.75 0  0.5 0.75 0  0.75 0.75 0  1 0.75 0  1.25 0.75 0  1.5 0.75 0  1.75 0.75 0  2 0.75 0  2.25 0.75 0  2.5 0.75 0  2.75 0.75 0  3 0.75 0  3.25 0.75 0  3.5 0.75 0  3.75 0.75 0  4 0.75 0  4.25 0.75 0  4.5 0.75 0  4.75 0.75 0  5 0.75 0  5.25 0.75 0  5.5 0.75 0  5.75 0.75 0  6 0.75 0  6.25 0.75 0  6.5 0.75 0  6.75 0.75 0  7 0.75 0  7.25 0.75 0  7.5 0.75 0  7.75 0.75 0  8 0.75 0  8.25 0.75 0  8.5 0.75 0  8.75 0.75 0  9 0.75 0  9.25 0.75 0  9.5 0.75 0  9.75 0.75 0  10 0.75 0  10.25 0.75 0  10.5 0.75 0  10.75 0.75 0  11 0.75 0  11.25 0.75 0  11.5 0.75 0  11.75 0.75 0  12 0.75 0  12.25 0.75 0  12.5 0.75 0  12.75 0.75 0  13 0.75 0  13.25 0.75 0  13.5 0.75 0  13.75 0.75 0  14 0.75 0  14.25 0.75 0  14.5 0.75 0  14.75 0.75 0  15 0.75 0  15.25 0.75 0  15.5 0.75 0  15.75 0.75 0  16 0.75 0  16.25 0.75 0  16.5 0.75 0  16.75 0.75 0  17 0.75 0  17.25 0.75 0  17.5 0.75 0  17.75 0.75 0  18 0.75 0  18.25 0.75 0  18.5 0.75 0  18.75 0.75 0  19 0.75 0  19.25 0.75 0  19.5 0.75 0  19.75 0.75 0  20 0.75 0  20.25 0.75 0  20.5 0.75 0  20.75 0.75 0  21 0.75 0  21.25 0.75 0  21.5 0.75 0  21.75 0.75 0  22 0.75 0  22.25 0.75 0  22.5 0.75 0  22.75 0.75 0  23 0.75 0  23.25 0.75 0  23.5 0.75 0  23.75 0.75 0  24 0.75 0  24.25 0.75 0  24.5 0.75 0  24.75 0.75 0  25 0.75 0  0 1 0  0.25 1 0  0.5 1 0  0.75 1 0  1 1 0  1.25 1 0  1.5 1 0  1.75 1 0  2 1 0  2.25 1 0  2.5 1 0  2.75 1 0  3 1 0  3.25 1 0  3.5 1 0  3.75 1 0  4 1 0  4.25 1 0  4.5 1 0  4.75 1 0  5 1 0  5.25 1 0  5.5 1 0  5.75 1 0  6 1 0  6.25 1 0  6.5 1 0  6.75 1 0  7 1 0  7.25 1 0  7.5 1 0  7.75 1 0  8 1 0  8.25 1 0  8.5 1 0  8.75 1 0  9 1 0  9.25 1 0  9.5 1 0  9.75 1 0  10 1 0  10.25 1 0  10.5 1 0  10.75 1 0  11 1 0  11.25 1 0  11.5 1 0  11.75 1 0  12 1 0  12.25 1 0  12.5 1 0  12.75 1 0  13 1 0  13.25 1 0  13.5 1 0  13.75 1 0  14 1 0  14.25 1 0  14.5 1 0  14.75 1 0  15 1 0  15.25 1 0  15.5 1 0  15.75 1 0  16 1 0  16.25 1 0  16.5 1 0  16.75 1 0  17 1 0  17.25 1 0  17.5 1 0  17.75 1 0  18 1 0  18.25 1 0  18.5 1 0  18.75 1 0  19 1 0  19.25 1 0  19.5 1 0  19.75 1 0  20 1 0  20.25 1 0  20.5 1 0  20.75 1 0  21 1 0  21.25 1 0  21.5 1 0  21.75 1 0  22 1 0  22.25 1 0  22.5 1 0  22.75 1 0  23 1 0  23.25 1 0  23.5 1 0  23.75 1 0  24 1 0  24.25 1 0  24.5 1 0  24.75 1 0  25 1 0  0 1.25 0  0.25 1.25 0  0.5 1.25 0  0.75 1.25 0  1 1.25 0  1.25 1.25 0  1.5 1.25 0  1.75 1.25 0  2 1.25 0  2.25 1.25 0  2.5 1.25 0  2.75 1.25 0  3 1.25 0  3.25 1.25 0  3.5 1.25 0  3.75 1.25 0  4 1.25 0  4.25 1.25 0  4.5 1.25 0  4.75 1.25 0  5 1.25 0  5.25 1.25 0  5.5 1.25 0  5.75 1.25 0  6 1.25 0  6.25 1.25 0  6.5 1.25 0  6.75 1.25 0  7 1.25 0  7.25 1.25 0  7.5 1.25 0  7.75 1.25 0  8 1.25 0  8.25 1.25 0  8.5 1.25 0  8.75 1.25 0  9 1.25 0  9.25 1.25 0  9.5 1.25 0  9.75 1.25 0  10 1.25 0  10.25 1.25 0  10.5 1.25 0  10.75 1.25 0  11 1.25 0  11.25 1.25 0  11.5 1.25 0  11.75 1.25 0  12 1.25 0  12.25 1.25 0  12.5 1.25 0  12.75 1.25 0  13 1.25 0  13.25 1.25 0  13.5 1.25 0  13.75 1.25 0  14 1.25 0  14.25 1.25 0  14.5 1.25 0  14.75 1.25 0  15 1.25 0  15.25 1.25 0  15.5 1.25 0  15.75 1.25 0  16 1.25 0  16.25 1.25 0  16.5 1.25 0  16.75 1.25 0  17 1.25 0  17.25 1.25 0  17.5 1.25 0  17.75 1.25 0  18 1.25 0  18.25 1.25 0  18.5 1.25 0  18.75 1.25 0  19 1.25 0  19.25 1.25 0  19.5 1.25 0  19.75 1.25 0  20 1.25 0  20.25 1.25 0  20.5 1.25 0  20.75 1.25 0  21 1.25 0  21.25 1.25 0  21.5 1.25 0  21.75 1.25 0  22 1.25 0  22.25 1.25 0  22.5 1.25 0  22.75 1.25 0  23 1.25 0  23.25 1.25 0  23.5 1.25 0  23.75 1.25 0  24 1.25 0  24.25 1.25 0  24.5 1.25 0  24.75 1.25 0  25 1.25 0  0 1.5 0  0.25 1.5 0  0.5 1.5 0  0.75 1.5 0  1 1.5 0  1.25 1.5 0  1.5 1.5 0  1.75 1.5 0  2 1.5 0  2.25 1.5 0  2.5 1.5 0  2.75 1.5 0  3 1.5 0  3.25 1.5 0  3.5 1.5 0  3.75 1.5 0  4 1.5 0  4.25 1.5 0  4.5 1.5 0  4.75 1.5 0  5 1.5 0  5.25 1.5 0  5.5 1.5 0  5.75 1.5 0  6 1.5 0  6.25 1.5 0  6.5 1.5 0  6.75 1.5 0  7 1.5 0  7.25 1.5 0  7.5 1.5 0  7.75 1.5 0  8 1.5 0  8.25 1.5 0  8.5 1.5 0  8.75 1.5 0  9 1.5 0  9.25 1.5 0  9.5 1.5 0  9.75 1.5 0  10 1.5 0  10.25 1.5 0  10.5 1.5 0  10.75 1.5 0  11 1.5 0  11.25 1.5 0  11.5 1.5 0  11.75 1.5 0  12 1.5 0  12.25 1.5 0  12.5 1.5 0  12.75 1.5 0  13 1.5 0  13.25 1.5 0  13.5 1.5 0  13.75 1.5 0  14 1.5 0  14.25 1.5 0  14.5 1.5 0  14.75 1.5 0  15 1.5 0  15.25 1.5 0  15.5 1.5 0  15.75 1.5 0  16 1.5 0  16.25 1.5 0  16.5 1.5 0  16.75 1.5 0  17 1.5 0  17.25 1.5 0  17.5 1.5 0  17.75 1.5 0  18 1.5 0  18.25 1.5 0  18.5 1.5 0  18.75 1.5 0  19 1.5 0  19.25 1.5 0  19.5 1.5 0  19.75 1.5 0  20 1.5 0  20.25 1.5 0  20.5 1.5 0  20.75 1.5 0  21 1.5 0  21.25 1.5 0  21.5 1.5 0  21.75 1.5 0  22 1.5 0  22.25 1.5 0  22.5 1.5 0  22.75 1.5 0  23 1.5 0  23.25 1.5 0  23.5 1.5 0  23.75 1.5 0  24 1.5 0  24.25 1.5 0  24.5 1.5 0  24.75 1.5 0  25 1.5 0  0 1.75 0  0.25 1.75 0  0.5 1.75 0  0.75 1.75 0  1 1.75 0  1.25 1.75 0  1.5 1.75 0  1.75 1.75 0  2 1.75 0  2.25 1.75 0  2.5 1.75 0  2.75 1.75 0  3 1.75 0  3.25 1.75 0  3.5 1.75 0  3.75 1.75 0  4 1.75 0  4.25 1.75 0  4.5 1.75 0  4.75 1.75 0  5 1.75 0  5.25 1.75 0  5.5 1.75 0  5.75 1.75 0  6 1.75 0  6.25 1.75 0  6.5 1.75 0  6.75 1.75 0  7 1.75 0  7.25 1.75 0  7.5 1.75 0  7.75 1.75 0  8 1.75 0  8.25 1.75 0  8.5 1.75 0  8.75 1.75 0  9 1.75 0  9.25 1.75 0  9.5 1.75 0  9.75 1.75 0  10 1.75 0  10.25 1.75 0  10.5 1.75 0  10.75 1.75 0  11 1.75 0  11.25 1.75 0  11.5 1.75 0  11.75 1.75 0  12 1.75 0  12.25 1.75 0  12.5 1.75 0  12.75 1.75 0  13 1.75 0  13.25 1.75 0  13.5 1.75 0  13.75 1.75 0  14 1.75 0  14.25 1.75 0  14.5 1.75 0  14.75 1.75 0  15 1.75 0  15.25 1.75 0  15.5 1.75 0  15.75 1.75 0  16 1.75 0  16.25 1.75 0  16.5 1.75 0  16.75 1.75 0  17 1.75 0  17.25 1.75 0  17.5 1.75 0  17.75 1.75 0  18 1.75 0  18.25 1.75 0  18.5 1.75 0  18.75 1.75 0  19 1.75 0  19.25 1.75 0  19.5 1.75 0  19.75 1.75 0  20 1.75 0  20.25 1.75 0  20.5 1.75 0  20.75 1.75 0  21 1.75 0  21.25 1.75 0  21.5 1.75 0  21.75 1.75 0  22 1.75 0  22.25 1.75 0  22.5 1.75 0  22.75 1.75 0  23 1.75 0  23.25 1.75 0  23.5 1.75 0  23.75 1.75 0  24 1.75 0  24.25 1.75 0  24.5 1.75 0  24.75 1.75 0  25 1.75 0  0 2 0  0.25 2 0  0.5 2 0  0.75 2 0  1 2 0  1.25 2 0  1.5 2 0  1.75 2 0  2 2 0  2.25 2 0  2.5 2 0  2.75 2 0  3 2 0  3.25 2 0  3.5 2 0  3.75 2 0  4 2 0  4.25 2 0  4.5 2 0  4.75 2 0  5 2 0  5.25 2 0  5.5 2 0  5.75 2 0  6 2 0  6.25 2 0  6.5 2 0  6.75 2 0  7 2 0  7.25 2 0  7.5 2 0  7.75 2 0  8 2 0  8.25 2 0  8.5 2 0  8.75 2 0  9 2 0  9.25 2 0  9.5 2 0  9.75 2 0  10 2 0  10.25 2 0  10.5 2 0  10.75 2 0  11 2 0  11.25 2 0 
[...]
<PointData  Scalars="f_23"> 
<DataArray  type="Float64"  Name="f_23"  format="ascii">7.4986296713831779e-01  7.4257745648130069e-01  7.2619643222204355e-01  6.9907796363350017e-01  6.5974397697064435e-01  6.0660487330494406e-01  5.3812606046134925e-01  4.5320853461043625e-01  3.5170074612061997e-01  2.3491874174801067e-01  1.0597563978206000e-01  -3.0295242211607298e-02  -1.6792570455680236e-01  -3.0078319302581225e-01  -4.2360078906145754e-01  -5.3271188045267326e-01  -6.2629959771533772e-01  -7.0420119351066579e-01  -7.6745497752255043e-01  -8.1779332875906596e-01  -8.5721676285393100e-01  -8.8770068515320977e-01  -9.1102880944002418e-01  -9.2872184677398606e-01  -9.4202681490104967e-01  -9.5193917216120705e-01  -9.5923904265471960e-01  -9.6453047706429673e-01  -9.6827805610047535e-01  -9.7083844601410596e-01  -9.7248634106772436e-01  -9.7343511862957366e-01  -9.7385288569832718e-01  -9.7387466805887957e-01  -9.7361143784845616e-01  -9.7315657687227952e-01  -9.7259027469161563e-01  -9.7198228098318251e-01  -9.7139337548585569e-01  -9.7087588252989321e-01  -9.7047353295330741e-01  -9.7022095483468951e-01  -9.7014304718332034e-01  -9.7025445117855680e-01  -9.7055927902972661e-01  -9.7105119241108639e-01  -9.7171384565876329e-01  -9.7252163058223828e-01  -9.7344058704277381e-01  -9.7442928158156261e-01  -9.7543940682290009e-01  -9.7641581395548716e-01  -9.7729565139315699e-01  -9.7800623271310527e-01  -9.7846118109497460e-01  -9.7855427889539548e-01  -9.7815027269419186e-01  -9.7707163175009937e-01  -9.7507992537687671e-01  -9.7185008771578085e-01  -9.6693544063100190e-01  -9.5972111287781425e-01  -9.4936379204712273e-01  -9.3471730196996483e-01  -9.1424762122269498e-01  -8.8594971935913236e-01  -8.4729458958357751e-01  -7.9525967159174316e-01  -7.2652555376084949e-01  -6.3793861872770130e-01  -5.2730371895032235e-01  -3.9443282192993118e-01  -2.4213045517309492e-01  -7.6575344241245236e-02  9.3378452227431422e-02  2.5796020839152967e-01  4.0862414534588354e-01  5.3964307813117007e-01  6.4860714701252342e-01  7.3593124551196909e-01  8.0387078767359765e-01  8.5553427627440848e-01  8.9415527184823795e-01  9.2267151644606560e-01  9.4354619415702146e-01  9.5874034850087897e-01  9.6976189833226734e-01  9.7774311118499702e-01  9.8352040990586687e-01  9.8770478952988694e-01  9.9073918708793385e-01  9.9294306584086689e-01  9.9454603748296655e-01  9.9571271464591660e-01  9.9656082603877749e-01  9.9717428149537524e-01  9.9761250384713496e-01  9.9791700935846595e-01  9.9811591882947870e-01  9.9822673614614910e-01  9.9825695756225263e-01  7.3905584202647445e-01  7.3328408362633057e-01  7.1708647704839890e-01  6.8978381736279171e-01  6.5013934833843823e-01  5.9666269416384210e-01  5.2789796887053164e-01  4.4282606448758050e-01  3.4136998788046341e-01  2.2489780248932492e-01  9.6534922173173082e-02  -3.8919404935086443e-02  -1.7556807465658733e-01  -3.0736564470317485e-01  -4.2912660692883270e-01  -5.3724653704369973e-01  -6.2994783150268074e-01  -7.0708666530256814e-01  -7.6970478881008653e-01  -8.1952749732263508e-01  -8.5854200090706478e-01  -8.8870760882228650e-01  -9.1179163072729419e-01  -9.2929963036105556e-01  -9.4246552972824538e-01  -9.5227398172061162e-01  -9.5949649150856331e-01  -9.6473040133804822e-01  -9.6843516040396860e-01  -9.7096355553299885e-01  -9.7258736934560830e-01  -9.7351780206740046e-01  -9.7392133485180621e-01  -9.7393177967412314e-01  -9.7365920376895843e-01  -9.7319631822224062e-01  -9.7262282280980339e-01  -9.7200812064787812e-01  -9.7141276102511087e-01  -9.7088893339767091e-01  -9.7048031223974396e-01  -9.7022153196522631e-01  -9.7013754474282510e-01  -9.7024307532454623e-01  -9.7054233320677219e-01  -9.7102907483158007e-01  -9.7168703199118545e-01  -9.7249064418375020e-01  -9.7340595962159071e-01  -9.7439150719533862e-01  -9.7539889154367021e-01  -9.7637282240059242e-01  -9.7725024976004293e-01  -9.7795822614069083e-01  -9.7841004131767173e-01  -9.7849905653223368e-01  -9.7808948756319058e-01  -9.7700313513872905e-01  -9.7500073183348124e-01  -9.7175618366615801e-01  -9.6682159825993119e-01  -9.5958077862466307e-01  -9.4918919080107078e-01  -9.3450000952208134e-01  -9.1397999939620278e-01  -8.8562771496250803e-01  -8.4692228395456703e-01  -7.9485527397557998e-01  -7.2612684733962529e-01  -6.3760331821994232e-01  -5.2709859050171826e-01  -3.9440868555720193e-01  -2.4229107433237729e-01  -7.6860736938326110e-02  9.3075323484581099e-02  2.5774764877530437e-01  4.0856639794445238e-01  5.3974395976732559e-01  6.4882552005631200e-01  7.3620976418698680e-01  8.0415892195684668e-01  8.5579850031920279e-01  8.9437909151644890e-01  9.2285084625069091e-01  9.4368414425773173e-01  9.5884322687836288e-01  9.6983673640536427e-01  9.7779639267214624e-01  9.8355756802381111e-01  9.8773012427818152e-01  9.9075597699753926e-01  9.9295374687634075e-01  9.9455238579437544e-01  9.9571600665727023e-01  9.9656196859975865e-01  9.9717391436888325e-01  9.9761108300193990e-01  9.9791489170497771e-01  9.9811351861769737e-01  9.9822505576752629e-01  9.9825993891123876e-01  7.1191624721879598e-01  7.0633154801060460e-01  6.8988531945780851e-01  6.6194606339758355e-01  6.2141545675164001e-01  5.6695835141658601e-01  4.9730323145762012e-01  4.1164677644587999e-01  3.1013822466791469e-01  1.9433858714715427e-01  6.7478001653156830e-02  -6.5670834597391883e-02  -1.9937516232896588e-01  -3.2785263910827550e-01  -4.4621076131368775e-01  -5.5110014815010477e-01  -6.4091867085094234e-01  -7.1560982718324684e-01  -7.7622983656748201e-01  -8.2447051626473722e-01  -8.6226126479409937e-01  -8.9149653695493025e-01  -9.1388211500574523e-01  -9.3087030937780346e-01  -9.4365151551876802e-01  -9.5317613426950532e-01  -9.6018940209486925e-01  -9.6526886348829022e-01  -9.6885921694493982e-01  -9.7130233554154677e-01  -9.7286195577513146e-01  -9.7374335203123108e-01  -9.7410863891830524e-01  -9.7408840845988298e-01  -9.7379035577671980e-01  -9.7330545419101899e-01  -9.7271214880407419e-01  -9.7207896396266913e-01  -9.7146586886040354e-01  -9.7092471343778364e-01  -9.7049902624931828e-01  -9.7022344794067950e-01  -9.7012304977630703e-01  -9.7021274987278416e-01  -9.7049698755123848e-01  -9.7096974970019867e-01  -9.7161496703249672e-01  -9.7240721967479182e-01  -9.7331261795759227e-01  -9.7428966101241188e-01  -9.7528982462232905e-01  -9.7625758784277006e-01  -9.7712956753805458e-01  -9.7783237929674094e-01  -9.7827876721412332e-01  -9.7836142703151008e-01  -9.7794377038229374e-01  -9.7684662868872119e-01  -9.7482956900291373e-01  -9.7156510861357392e-01  -9.6660373817387613e-01  -9.5932746507019517e-01  -9.4888993888242279e-01  -9.3414284052517060e-01  -9.1355238299848496e-01  -8.8511846565354568e-01  -8.4632466641776083e-01  -7.9417117567302919e-01  -7.2537099334911637e-01  -6.3680524654931292e-01  -5.2629931684404763e-01  -3.9365031527587818e-01  -2.4160215538179755e-01  -7.6245606754642467e-02  9.3634660305291301e-02  2.5827692974647737e-01  4.0908201545272904e-01  5.4024494448352112e-01  6.4929740452310769e-01  7.3663434560489516e-01  8.0452257586374298e-01  8.5609572282333368e-01  8.9461193754410107e-01  9.2302641603341773e-01  9.4381188426418772e-01  9.5893289859855935e-01  9.6989721647494542e-01  9.7783514195664700e-01  9.8358053114531108e-01  9.8774185835130035e-01  9.9075987420344824e-01  9.9295227311173639e-01  9.9454729749415627e-01  9.9570853188191044e-01  9.9655295149142142e-01  9.9716392880418159e-01  9.9760052561713397e-01  9.9790406995927539e-01  9.9810275738478438e-01  9.9821483011242185e-01  9.9825076453834605e-01  6.6642713548087784e-01  6.6069442622824526e-01  6.4365303380269889e-01  6.1468653541643525e-01  5.7282998841799670e-01  5.1696021622238475e-01  4.4608766231047448e-01  3.5974577456021994e-01  2.5843407866403079e-01  1.4400621028041583e-01  1.9841927466493391e-02  -1.0934459069773249e-01  -2.3809519510731283e-01  -3.6105547793397114e-01  -4.7380487881018651e-01  -5.7340200105816486e-01  -6.5852235020758321e-01  -7.2924340328832249e-01  -7.8663724812759772e-01  -8.3233469512667924e-01  -8.6816617671653185e-01  -8.9591745887232277e-01  -9.1719254980752796e-01  -9.3335654795214995e-01  -9.4552915221790002e-01  -9.5460551671023097e-01  -9.6128875496609456e-01  -9.6612481851782928e-01  -9.6953495971475234e-01  -9.7184375905927223e-01  -9.7330223585144915e-01  -9.7410631655800817e-01  -9.7441123788308870e-01  -9.7434252574913305e-01  -9.7400414623028186e-01  -9.7348434220666324e-01  -9.7285958745247803e-01  -9.7219702451246104e-01  -9.7155570822994797e-01  -9.7098695008878688e-01  -9.7053404249413078e-01  -9.7023162792505546e-01  -9.7010495705541655e-01  -9.7016924606637645e-01  -9.7042929349389739e-01  -9.7087945210435289e-01  -9.7150397615477746e-01  -9.7227768600049580e-01  -9.7316681777417824e-01  -9.7412986142280844e-01  -9.7511813782102019e-01  -9.7607582239280477e-01  -9.7693908122667472e-01  -9.7763393433984447e-01  -9.7807238462016111e-01  -9.7814623334232342e-01  -9.7771782735091217e-01  -9.7660673546962096e-01  -9.7457102824510056e-01  -9.7128145429163337e-01  -9.6628643694750049e-01  -9.5896562853807399e-01  -9.4847012615284410e-01  -9.3364909254541117e-01  -9.1296670874282793e-01  -8.8442207489183777e-01  -8.4550026107075060e-01  -7.9320647444499659e-01  -7.2426325056235474e-01  -6.3556578638684158e-01  -5.2495626038514809e-01  -3.9224739545543097e-01  -2.4019264871424068e-01  -7.4882993512557755e-02  9.4905410447848518e-02  2.5942396318194727e-01  4.1008669487617533e-01  5.4109971522044953e-01  6.5000362086130459e-01  7.3720056767503039e-01  8.0496283983731043e-01  8.5642748271227975e-01  8.9485390490816230e-01  9.2319671555958671e-01  9.4392679461884088e-01  9.5900621206671854e-01  9.6994009336598452e-01  9.7785628478232123e-01  9.8358652190949358e-01  9.8773754719103413e-01  9.9074875254670836e-01  9.9293679873239549e-01  9.9452916094330579e-01  9.9568886620271857e-01  9.9653249310798575e-01  9.9714313973644064e-01  9.9757968748799264e-01  9.9788335882230417e-01  9.9808230124796227e-01  9.9819472233995155e-01  9.9823092335391450e-01  6.0079663152480189e-01  5.9484816696414333e-01  5.7705234991509324e-01  5.4687217764948870e-01  5.0352739728190021e-01  4.4617903938213610e-01  3.7421082812582218e-01  2.8758876128385175e-01  1.8724162738764541e-01  7.5354607610275501e-02  -4.4561504744449011e-02  -1.6793033779988992e-01  -2.8969365415987491e-01  -4.0506840330464877e-01  -5.1023727847427924e-01  -6.0276415107505166e-01  -6.8165690315346794e-01  -7.4714266743490554e-01  -8.0029637004758347e-01  -8.4265800443911254e-01  -8.7592247298602155e-01  -9.0173034729746326e-01  -9.2155117545599630e-01  -9.3663548991927759e-01  -9.4801040546450621e-01  -9.5649884310958555e-01  -9.6274888288157212e-01  -9.6726520603368804e-01  -9.7043842802836022e-01  -9.7257051909521486e-01  -9.7389585539924217e-01  -9.7459811522726825e-01  -9.7482351037793846e-01  -9.7469090759541199e-01  -9.7429936089897717e-01  -9.7373350717439711e-01  -9.7306720819859305e-01  -9.7236576768943839e-01  -9.7168701614365394e-01  -9.7108153648220108e-01  -9.7059229323309992e-01  -9.7025391872423961e-01  -9.7009189326169731e-01  -9.7012182616988607e-01  -9.7034899778319750e-01  -9.7076825986354920e-01  -9.7136431800913314e-01  -9.7211234140623060e-01  -9.7297877028109825e-01  -9.7392212553246660e-01  -9.7489357068077376e-01  -9.7583693123059356e-01  -9.7668783366813217e-01  -9.7737157408037201e-01  -9.7779924995482403e-01  -9.7786157139510455e-01  -9.7741959309573112e-01  -9.7629136247915949e-01  -9.7423315848474457e-01  -9.7091361869851855e-01  -9.6587868944439592e-01  -9.5850515731101560e-01  -9.4794090277478560e-01  -9.3303167812118071e-01  -9.1223842144906242e-01  -8.8355783186078618e-01  -8.4447451465345624e-01  -7.9199669918376259e-01  -7.2285526445875647e-01  -6.3396061112913449e-01  -5.2317711164581160e-01  -3.9034400648219642e-01  -2.3823945867400417e-01  -7.2969191318493207e-02  9.6692102462780094e-02  2.6101385994005039e-01  4.1143855595499707e-01  5.4220209770993000e-01  6.5086901782138051e-01  7.3785650664385505e-01  8.0544351557399152e-01  8.5676765767859653e-01  8.9508528766652462e-01  9.2334629290250325e-01  9.4401644238167381e-01  9.5905302301985274e-01  9.6995703520150600e-01  9.7785295239721282e-01  9.8356985593976076e-01  9.8771245971003807e-01  9.9071864141969035e-01  9.9290395387984864e-01  9.9449507588541852e-01  9.9565447165073340e-01  9.9649832918986969e-01  9.9710948154952683e-01  9.9754663589013415e-01  9.9785090448585545e-01  9.9805036350080922e-01  9.9816315358411634e-01  9.9819946449480312e-01  5.1361107414855134e-01  5.0749880207364773e-01  4.8899873881061018e-01  4.5771592602799410e-01  4.1311903513181786e-01  3.5472440104314967e-01  2.8235937450161258e-01  1.9647546171862523e-01  9.8447106449621957e-02  -9.2426658034023175e-03  -1.2303578928010377e-01  -2.3861115606706071e-01  -3.5143461969338874e-01  -4.5739936184899554e-01  -5.5336162635018316e-01  -6.3742417546830121e-01  -7.0893115159376807e-01  -7.6824353276359714e-01  -8.1641269884138346e-01  -8.5485755630316684e-01  -8.8510759494094837e-01  -9.0863108820892191e-01  -9.2673987727168794e-01  -9.4055077216993188e-01  -9.5098297998469716e-01  -9.5877520082306744e-01  -9.6451125603559884e-01  -9.6864754044141388e-01  -9.7153873824671200e-01  -9.7346023229295742e-01  -9.7462677293756239e-01  -9.7520755177223117e-01  -9.7533807155771557e-01  -9.7512926887340645e-01  -9.7467432448372371e-01  -9.7405354341941164e-01  -9.7333763207611690e-01  -9.7258965724037327e-01  -9.7186594594448517e-01  -9.7121617321860010e-01  -9.7068288108447631e-01  -9.7030066855844699e-01  -9.7009528098491293e-01  -9.7008280137911007e-01  -9.7026910339380190e-01  -9.7064966567337096e-01  -9.7120977505573303e-01  -9.7192506823942670e-01  -9.7276228577303225e-01  -9.7368004472290304e-01  -9.7462937994411414e-01  -9.7555375672155520e-01  -9.7638821289628552e-01  -9.7705723517233733e-01  -9.7747089739077930e-01  -9.7751867145774807e-01  -9.7706014760905557e-01  -9.7591165632269461e-01  -9.7382746572001622e-01  -9.7047385531351094e-01  -9.6539401004465508e-01  -9.5796151246563976e-01  -9.4732060928936512e-01  -9.3231311492234148e-01  -9.1139605902402765e-01  -8.8256293907718097e-01  -8.4329704945760309e-01  -7.9060901342430867e-01  -7.2123817250984634e-01  -6.3211179835753895e-01  -5.2112050081487349e-01  -3.8813669133878986e-01  -2.3597133128257844e-01  -7.0751573707929935e-02  9.8747510913212960e-02  2.6281812965378881e-01  4.1294099828774061e-01  5.4339274000157978e-01  6.5177005808448307e-01  7.3850903317537542e-01  8.0589526776045906e-01  8.5706463067274674e-01  8.9526734678115494e-01  9.2344571951523058e-01  9.4405817598971842e-01  9.5905567388836499e-01  9.6993411226070780e-01  9.7781402773451231e-01  9.8352155459296153e-01  9.8765925093731244e-01  9.9066344712804366e-01  9.9284860393606622e-01  9.9444064189820081e-01  9.9560150756822519e-01  9.9644704216321101e-01  9.9705985148184550e-01  9.9749849739253438e-01  9.9780400051383666e-01  9.9800437561471445e-01  9.9811771080376799e-01  9.9815413730697489e-01  4.0454847977992076e-01  3.9840554937329270e-01  3.7947599606812771e-01  3.4755472268532434e-01  3.0241069226961592e-01  2.4396209236152830e-01  1.7250746684487672e-01  8.8975536478387809e-02  -4.8698978801107271e-03  -1.0635129652829302e-01  -2.1199541121445425e-01  -3.1786645484049997e-01  -4.2005215498848214e-01  -5.1517123499608597e-01  -6.0075691729404412e-01  -6.7542380089965259e-01  -7.3881249862361287e-01  -7.9137800571881689e-01  -8.3411423264763773e-01  -8.6829212349342588e-01  -8.9525490083208148e-01  -9.1628224718031936e-01  -9.3251538218357533e-01  -9.4492705310321967e-01  -9.5432026279937021e-01  -9.6134286211423037e-01  -9.6650915796296644e-01  -9.7022312553695977e-01  -9.7280029075403862e-01  -9.7448694258414204e-01  -9.7547626398449250e-01  -9.7592145597363644e-01  -9.7594614487379638e-01  -9.7565242761406745e-01  -9.7512690071664254e-01  -9.7444498112970779e-01  -9.7367378710767694e-01  -9.7287381742861467e-01  -9.7209965134922172e-01  -9.7139988807071098e-01  -9.7081654764250336e-01  -9.7038415768869191e-01  -9.7012874436264507e-01  -9.7006692522287030e-01  -9.7020526288459230e-01  -9.7053998169562772e-01  -9.7105707938657226e-01  -9.7173278843305400e-01  -9.7253426543129928e-01  -9.7342031757856329e-01  -9.7434191660735858e-01  -9.7524220093726754e-01  -9.7605562005411362e-01  -9.7670582024309138e-01  -9.7710179322485469e-01  -9.7713169228649632e-01  -9.7665354740152655e-01  -9.7548186811895088e-01  -9.7336880709278406e-01  -9.6997818807841674e-01  -9.6485035159155996e-01  -9.5735561562745830e-01  -9.4663456397329815e-01  -9.3152508723036564e-01  -9.1048038351773686e-01  -8.8149092418110475e-01  -8.4203903026266347e-01  -7.8913831822880820e-01  -7.1953757679760710e-01  -6.3018240608074605e-01  -5.1899150662191840e-01  -3.8587230673282813e-01  -2.3366961658884772e-01  -6.8531340851682845e-02  1.0076998629212318e-01  2.6455401334672374e-01  4.1434468854542150e-01  5.4446301725921131e-01  6.5253927128792344e-01  7.3902765348466426e-01  8.0621829111068277e-01  8.5724275748622036e-01  8.9534284173418532e-01  9.2345151685343740e-01  9.4401872474617443e-01  9.5898845535642352e-01  9.6985123069620560e-01  9.7772360591678975e-01  9.8342885359281895e-01  9.8756752260854208e-01  9.9057456134011157e-01  9.9276349897189464e-01  9.9435964166435742e-01  9.9552454110280275e-01  9.9637379273391680e-01  9.9698985550965225e-01  9.9743120770847893e-01  9.9773882392633895e-01  9.9794069144161834e-01  9.9805487560501882e-01  9.9809148320904839e-01  2.7523930445389777e-01  2.6924868452131007e-01  2.5037387233147224e-01  2.1862155919079548e-01  1.7407863388677292e-01  1.1706500207688150e-01  4.8317171997791064e-02  -3.0836817170855339e-02  -1.1836656007492374e-01  -2.1155097320972646e-01  -3.0714929732512869e-01  -4.0172037442237996e-01  -4.9202181816584234e-01  -5.7538383131611337e-01  -6.4995947029310441e-01  -7.1480164545735758e-01  -7.6977939829655606e-01  -8.1539027235910311e-01  -8.5253725851563511e-01  -8.8232409915537358e-01  -9.0589765873748918e-01  -9.2434393155229588e-01  -9.3863074217218057e-01  -9.4958490497288806e-01  -9.5789163219716000e-01  -9.6410642389915757e-01  -9.6867263661674408e-01  -9.7194048962015578e-01  -9.7418514742853446e-01  -9.7562275198509596e-01  -9.7642401572706528e-01  -9.7672538470533110e-01  -9.7663796611202991e-01  -9.7625447789624131e-01  -9.7565447956263218e-01  -9.7490812003093097e-01  -9.7407861223077519e-01  -9.7322362598743595e-01  -9.7239578450714670e-01  -9.7164245403690219e-01  -9.7100502613368733e-01  -9.7051790044080910e-01  -9.7020737546964309e-01  -9.7009063935410000e-01  -9.7017501829280017e-01  -9.7045758745376387e-01  -9.7092518123500848e-01  -9.7155476352778247e-01  -9.7231404171731539e-01  -9.7316213727740630e-01  -9.7405006464745281e-01  -9.7492071784233991e-01  -9.7570801511408345e-01  -9.7633479538214241e-01  -9.7670898172731269e-01  -9.7671741037681614e-01  -9.7621655150330133e-01  -9.7501910732559238e-01  -9.7287515998378338e-01  -9.6944617694765756e-01  -9.6426983773673425e-01  -9.5671350038190550e-01  -9.4591455751645781e-01  -9.3070766888453427e-01  -9.0954317138745966e-01  -8.8040979977001221e-01  -8.4079050139946232e-01  -7.8770366909920664e-01  -7.1790916533545213e-01  -6.2837174763054393e-01  -5.1703732271379943e-01  -3.8384484168496769e-01  -2.3166659972380663e-01  -6.6663034650098596e-02  1.0240362586097415e-01  2.6588521215636829e-01  4.1534920960799260e-01  5.4515735189675107e-01  6.5296767056770333e-01  7.3924649310140655e-01  8.0628358418763779e-01  8.5720291212214261e-01  8.9523598835716367e-01  9.2330571943120698e-01  9.4385354218879813e-01  9.5881685919023363e-01  9.6968137652433473e-01  9.7756027383843103e-01  9.8327453766822148e-01  9.8742321754290685e-01  9.9044031214621009e-01  9.9263877499903541e-01  9.9424358483773445e-01  9.9541612608554508e-01  9.9627192638378714e-01  9.9689343494083749e-01  9.9733915026186859e-01  9.9765007802913530e-01  9.9785423446665833e-01  9.9796970344147284e-01  9.9800659633171362e-01  1.2987985