<?xml version="1.0"?>
<VTKFile type="UnstructuredGrid"  version="0.1"  >
<UnstructuredGrid>
<Piece  NumberOfPoints="10201" NumberOfCells="20000">
<Points>
<DataArray  type="Float64"  NumberOfComponents="3"  format="ascii">0 0 0  0.25 0 0  0.5 0 0  0.75 0 0  1 0 0  1.25 0 0  1.5 0 0  1.75 0 0  2 0 0  2.25 0 0  2.5 0 0  2.75 0 0  3 0 0  3.25 0 0  3.5 0 0  3.75 0 0  4 0 0  4.25 0 0  4.5 0 0  4.75 0 0  5 0 0  5.25 0 0  5.5 0 0  5.75 0 0  6 0 0  6.25 0 0  6.5 0 0  6.75 0 0  7 0 0  7.25 0 0  7.5 0 0  7.75 0 0  8 0 0  8.25 0 0  8.5 0 0  8.75 0 0  9 0 0  9.25 0 0  9.5 0 0  9.75 0 0  10 0 0  10.25 0 0  10.5 0 0  10.75 0 0  11 0 0  11.25 0 0  11.5 0 0  11.75 0 0  12 0 0  12.25 0 0  12.5 0 0  12.75 0 0  13 0 0  13.25 0 0  13.5 0 0  13.75 0 0  14 0 0  14.25 0 0  14.5 0 0  14.75 0 0  15 0 0  15.25 0 0  15.5 0 0  15.75 0 0  16 0 0  16.25 0 0  16.5 0 0  16.75 0 0  17 0 0  17.25 0 0  17.5 0 0  17.75 0 0  18 0 0  18.25 0 0  18.5 0 0  18.75 0 0  19 0 0  19.25 0 0  19.5 0 0  19.75 0 0  20 0 0  20.25 0 0  20.5 0 0  20.75 0 0  21 0 0  21.25 0 0  21.5 0 0  21.75 0 0  22 0 0  22.25 0 0  22.5 0 0  22.75 0 0  23 0 0  23.25 0 0  23.5 0 0  23.75 0 0  24 0 0  24.25 0 0  24.5 0 0  24.75 0 0  25 0 0  0 0.25 0  0.25 0.25 0  0.5 0.25 0  0.75 0.25 0  1 0.25 0  1.25 0.25 0  1.5 0.25 0  1.75 0.25 0  2 0.25 0  2.25 0.25 0  2.5 0.25 0  2.75 0.25 0  3 0.25 0  3.25 0.25 0  3.5 0.25 0  3.75 0.25 0  4 0.25 0  4.25 0.25 0  4.5 0.25 0  4.75 0.25 0  5 0.25 0  5.25 0.25 0  5.5 0.25 0  5.75 0.25 0  6 0.25 0  6.25 0.25 0  6.5 0.25 0  6.75 0.25 0  7 0.25 0  7.25 0.25 0  7.5 0.25 0  7.75 0.25 0  8 0.25 0  8.25 0.25 0  8.5 0.25 0  8.75 0.25 0  9 0.25 0  9.25 0.25 0  9.5 0.25 0  9.75 0.25 0  10 0.25 0  10.25 0.25 0  10.5 0.25 0  10.75 0.25 0  11 0.25 0  11.25 0.25 0  11.5 0.25 0  11.75 0.25 0  12 0.25 0  12.25 0.25 0  12.5 0.25 0  12.75 0.25 0  13 0.25 0  13.25 0.25 0  13.5 0.25 0  13.75 0.25 0  14 0.25 0  14.25 0.25 0  14.5 0.25 0  14.75 0.25 0  15 0.25 0  15.25 0.25 0  15.5 0.25 0  15.75 0.25 0  16 0.25 0  16.25 0.25 0  16.5 0.25 0  16.75 0.25 0  17 0.25 0  17.25 0.25 0  17.5 0.25 0  17.75 0.25 0  18 0.25 0  18.25 0.25 0  18.5 0.25 0  18.75 0.25 0  19 0.25 0  19.25 0.25 0  19.5 0.25 0  19.75 0.25 0  20 0.25 0  20.25 0.25 0  20.5 0.25 0  20.75 0.25 0  21 0.25 0  21.25 0.25 0  21.5 0.25 0  21.75 0.25 0  22 0.25 0  22.25 0.25 0  22.5 0.25 0  22.75 0.25 0  23 0.25 0  23.25 0.25 0  23.5 0.25 0  23.75 0.25 0  24 0.25 0  24.25 0.25 0  24.5 0.25 0  24.75 0.25 0  25 0.25 0  0 0.5 0  0.25 0.5 0  0.5 0.5 0  0.75 0.5 0  1 0.5 0  1.25 0.5 0  1.5 0.5 0  1.75 0.5 0  2 0.5 0  2.25 0.5 0  2.5 0.5 0  2.75 0.5 0  3 0.5 0  3.25 0.5 0  3.5 0.5 0  3.75 0.5 0  4 0.5 0  4.25 0.5 0  4.5 0.5 0  4.75 0.5 0  5 0.5 0  5.25 0.5 0  5.5 0.5 0  5.75 0.5 0  6 0.5 0  6.25 0.5 0  6.5 0.5 0  6.75 0.5 0  7 0.5 0  7.25 0.5 0  7.5 0.5 0  7.75 0.5 0  8 0.5 0  8.25 0.5 0  8.5 0.5 0  8.75 0.5 0  9 0.5 0  9.25 0.5 0  9.5 0.5 0  9.75 0.5 0  10 0.5 0  10.25 0.5 0  10.5 0.5 0  10.75 0.5 0  11 0.5 0  11.25 0.5 0  11.5 0.5 0  11.75 0.5 0  12 0.5 0  12.25 0.5 0  12.5 0.5 0  12.75 0.5 0  13 0.5 0  13.25 0.5 0  13.5 0.5 0  13.75 0.5 0  14 0.5 0  14.25 0.5 0  14.5 0.5 0  14.75 0.5 0  15 0.5 0  15.25 0.5 0  15.5 0.5 0  15.75 0.5 0  16 0.5 0  16.25 0.5 0  16.5 0.5 0  16.75 0.5 0  17 0.5 0  17.25 0.5 0  17.5 0.5 0  17.75 0.5 0  18 0.5 0  18.25 0.5 0  18.5 0.5 0  18.75 0.5 0  19 0.5 0  19.25 0.5 0  19.5 0.5 0  19.75 0.5 0  20 0.5 0  20.25 0.5 0  20.5 0.5 0  20.75 0.5 0  21 0.5 0  21.25 0.5 0  21.5 0.5 0  21.75 0.5 0  22 0.5 0  22.25 0.5 0  22.5 0.5 0  22.75 0.5 0  23 0.5 0  23.25 0.5 0  23.5 0.5 0  23.75 0.5 0  24 0.5 0  24.25 0.5 0  24.5 0.5 0  24.75 0.5 0  25 0.5 0  0 0.75 0  0.25 0.75 0  0.5 0.75 0  0.75 0.75 0  1 0.75 0  1.25 0.75 0  1.5 0.75 0  1.75 0.75 0  2 0.75 0  2.25 0.75 0  2.5 0.75 0  2.75 0.75 0  3 0.75 0  3.25 0.75 0  3.5 0.75 0  3.75 0.75 0  4 0.75 0  4.25 0.75 0  4.5 0.75 0  4.75 0.75 0  5 0.75 0  5.25 0.75 0  5.5 0.75 0  5.75 0.75 0  6 0.75 0  6.25 0.75 0  6.5 0.75 0  6.75 0.75 0  7 0.75 0  7.25 0.75 0  7.5 0.75 0  7.75 0.75 0  8 0.75 0  8.25 0.75 0  8.5 0.75 0  8.75 0.75 0  9 0.75 0  9.25 0.75 0  9.5 0.75 0  9.75 0.75 0  10 0.75 0  10.25 0.75 0  10.5 0.75 0  10.75 0.75 0  11 0.75 0  11.25 0.75 0  11.5 0.75 0  11.75 0.75 0  12 0.75 0  12.25 0.75 0  12.5 0.75 0  12.75 0.75 0  13 0.75 0  13.25 0.75 0  13.5 0.75 0  13.75 0.75 0  14 0.75 0  14.25 0.75 0  14.5 0.75 0  14.75 0.75 0  15 0.75 0  15.25 0.75 0  15.5 0.75 0  15.75 0.75 0  16 0.75 0  16.25 0.75 0  16.5 0.75 0  16.75 0.75 0  17 0.75 0  17.25 0.75 0  17.5 0.75 0  17.75 0.75 0  18 0.75 0  18.25 0.75 0  18.5 0.75 0  18.75 0.75 0  19 0.75 0  19.25 0.75 0  19.5 0.75 0  19.75 0.75 0  20 0.75 0  20.25 0.75 0  20.5 0.75 0  20.75 0.75 0  21 0.75 0  21.25 0.75 0  21.5 0.75 0  21.75 0.75 0  22 0.75 0  22.25 0.75 0  22.5 0.75 0  22.75 0.75 0  23 0.75 0  23.25 0.75 0  23.5 0.75 0  23.75 0.75 0  24 0.75 0  24.25 0.75 0  24.5 0.75 0  24.75 0.75 0  25 0.75 0  0 1 0  0.25 1 0  0.5 1 0  0.75 1 0  1 1 0  1.25 1 0  1.5 1 0  1.75 1 0  2 1 0  2.25 1 0  2.5 1 0  2.75 1 0  3 1 0  3.25 1 0  3.5 1 0  3.75 1 0  4 1 0  4.25 1 0  4.5 1 0  4.75 1 0  5 1 0  5.25 1 0  5.5 1 0  5.75 1 0  6 1 0  6.25 1 0  6.5 1 0  6.75 1 0  7 1 0  7.25 1 0  7.5 1 0  7.75 1 0  8 1 0  8.25 1 0  8.5 1 0  8.75 1 0  9 1 0  9.25 1 0  9.5 1 0  9.75 1 0  10 1 0  10.25 1 0  10.5 1 0  10.75 1 0  11 1 0  11.25 1 0  11.5 1 0  11.75 1 0  12 1 0  12.25 1 0  12.5 1 0  12.75 1 0  13 1 0  13.25 1 0  13.5 1 0  13.75 1 0  14 1 0  14.25 1 0  14.5 1 0  14.75 1 0  15 1 0  15.25 1 0  15.5 1 0  15.75 1 0  16 1 0  16.25 1 0  16.5 1 0  16.75 1 0  17 1 0  17.25 1 0  17.5 1 0  17.75 1 0  18 1 0  18.25 1 0  18.5 1 0  18.75 1 0  19 1 0  19.25 1 0  19.5 1 0  19.75 1 0  20 1 0  20.25 1 0  20.5 1 0  20.75 1 0  21 1 0  21.25 1 0  21.5 1 0  21.75 1 0  22 1 0  22.25 1 0  22.5 1 0  22.75 1 0  23 1 0  23.25 1 0  23.5 1 0  23.75 1 0  24 1 0  24.25 1 0  24.5 1 0  24.75 1 0  25 1 0  0 1.25 0  0.25 1.25 0  0.5 1.25 0  0.75 1.25 0  1 1.25 0  1.25 1.25 0  1.5 1.25 0  1.75 1.25 0  2 1.25 0  2.25 1.25 0  2.5 1.25 0  2.75 1.25 0  3 1.25 0  3.25 1.25 0  3.5 1.25 0  3.75 1.25 0  4 1.25 0  4.25 1.25 0  4.5 1.25 0  4.75 1.25 0  5 1.25 0  5.25 1.25 0  5.5 1.25 0  5.75 1.25 0  6 1.25 0  6.25 1.25 0  6.5 1.25 0  6.75 1.25 0  7 1.25 0  7.25 1.25 0  7.5 1.25 0  7.75 1.25 0  8 1.25 0  8.25 1.25 0  8.5 1.25 0  8.75 1.25 0  9 1.25 0  9.25 1.25 0  9.5 1.25 0  9.75 1.25 0  10 1.25 0  10.25 1.25 0  10.5 1.25 0  10.75 1.25 0  11 1.25 0  11.25 1.25 0  11.5 1.25 0  11.75 1.25 0  12 1.25 0  12.25 1.25 0  12.5 1.25 0  12.75 1.25 0  13 1.25 0  13.25 1.25 0  13.5 1.25 0  13.75 1.25 0  14 1.25 0  14.25 1.25 0  14.5 1.25 0  14.75 1.25 0  15 1.25 0  15.25 1.25 0  15.5 1.25 0  15.75 1.25 0  16 1.25 0  16.25 1.25 0  16.5 1.25 0  16.75 1.25 0  17 1.25 0  17.25 1.25 0  17.5 1.25 0  17.75 1.25 0  18 1.25 0  18.25 1.25 0  18.5 1.25 0  18.75 1.25 0  19 1.25 0  19.25 1.25 0  19.5 1.25 0  19.75 1.25 0  20 1.25 0  20.25 1.25 0  20.5 1.25 0  20.75 1.25 0  21 1.25 0  21.25 1.25 0  21.5 1.25 0  21.75 1.25 0  22 1.25 0  22.25 1.25 0  22.5 1.25 0  22.75 1.25 0  23 1.25 0  23.25 1.25 0  23.5 1.25 0  23.75 1.25 0  24 1.25 0  24.25 1.25 0  24.5 1.25 0  24.75 1.25 0  25 1.25 0  0 1.5 0  0.25 1.5 0  0.5 1.5 0  0.75 1.5 0  1 1.5 0  1.25 1.5 0  1.5 1.5 0  1.75 1.5 0  2 1.5 0  2.25 1.5 0  2.5 1.5 0  2.75 1.5 0  3 1.5 0  3.25 1.5 0  3.5 1.5 0  3.75 1.5 0  4 1.5 0  4.25 1.5 0  4.5 1.5 0  4.75 1.5 0  5 1.5 0  5.25 1.5 0  5.5 1.5 0  5.75 1.5 0  6 1.5 0  6.25 1.5 0  6.5 1.5 0  6.75 1.5 0  7 1.5 0  7.25 1.5 0  7.5 1.5 0  7.75 1.5 0  8 1.5 0  8.25 1.5 0  8.5 1.5 0  8.75 1.5 0  9 1.5 0  9.25 1.5 0  9.5 1.5 0  9.75 1.5 0  10 1.5 0  10.25 1.5 0  10.5 1.5 0  10.75 1.5 0  11 1.5 0  11.25 1.5 0  11.5 1.5 0  11.75 1.5 0  12 1.5 0  12.25 1.5 0  12.5 1.5 0  12.75 1.5 0  13 1.5 0  13.25 1.5 0  13.5 1.5 0  13.75 1.5 0  14 1.5 0  14.25 1.5 0  14.5 1.5 0  14.75 1.5 0  15 1.5 0  15.25 1.5 0  15.5 1.5 0  15.75 1.5 0  16 1.5 0  16.25 1.5 0  16.5 1.5 0  16.75 1.5 0  17 1.5 0  17.25 1.5 0  17.5 1.5 0  17.75 1.5 0  18 1.5 0  18.25 1.5 0  18.5 1.5 0  18.75 1.5 0  19 1.5 0  19.25 1.5 0  19.5 1.5 0  19.75 1.5 0  20 1.5 0  20.25 1.5 0  20.5 1.5 0  20.75 1.5 0  21 1.5 0  21.25 1.5 0  21.5 1.5 0  21.75 1.5 0  22 1.5 0  22.25 1.5 0  22.5 1.5 0  22.75 1.5 0  23 1.5 0  23.25 1.5 0  23.5 1.5 0  23.75 1.5 0  24 1.5 0  24.25 1.5 0  24.5 1.5 0  24.75 1.5 0  25 1.5 0  0 1.75 0  0.25 1.75 0  0.5 1.75 0  0.75 1.75 0  1 1.75 0  1.25 1.75 0  1.5 1.75 0  1.75 1.75 0  2 1.75 0  2.25 1.75 0  2.5 1.75 0  2.75 1.75 0  3 1.75 0  3.25 1.75 0  3.5 1.75 0  3.75 1.75 0  4 1.75 0  4.25 1.75 0  4.5 1.75 0  4.75 1.75 0  5 1.75 0  5.25 1.75 0  5.5 1.75 0  5.75 1.75 0  6 1.75 0  6.25 1.75 0  6.5 1.75 0  6.75 1.75 0  7 1.75 0  7.25 1.75 0  7.5 1.75 0  7.75 1.75 0  8 1.75 0  8.25 1.75 0  8.5 1.75 0  8.75 1.75 0  9 1.75 0  9.25 1.75 0  9.5 1.75 0  9.75 1.75 0  10 1.75 0  10.25 1.75 0  10.5 1.75 0  10.75 1.75 0  11 1.75 0  11.25 1.75 0  11.5 1.75 0  11.75 1.75 0  12 1.75 0  12.25 1.75 0  12.5 1.75 0  12.75 1.75 0  13 1.75 0  13.25 1.75 0  13.5 1.75 0  13.75 1.75 0  14 1.75 0  14.25 1.75 0  14.5 1.75 0  14.75 1.75 0  15 1.75 0  15.25 1.75 0  15.5 1.75 0  15.75 1.75 0  16 1.75 0  16.25 1.75 0  16.5 1.75 0  16.75 1.75 0  17 1.75 0  17.25 1.75 0  17.5 1.75 0  17.75 1.75 0  18 1.75 0  18.25 1.75 0  18.5 1.75 0  18.75 1.75 0  19 1.75 0  19.25 1.75 0  19.5 1.75 0  19.75 1.75 0  20 1.75 0  20.25 1.75 0  20.5 1.75 0  20.75 1.75 0  21 1.75 0  21.25 1.75 0  21.5 1.75 0  21.75 1.75 0  22 1.75 0  22.25 1.75 0  22.5 1.75 0  22.75 1.75 0  23 1.75 0  23.25 1.75 0  23.5 1.75 0  23.75 1.75 0  24 1.75 0  24.25 1.75 0  24.5 1.75 0  24.75 1.75 0  25 1.75 0  0 2 0  0.25 2 0  0.5 2 0  0.75 2 0  1 2 0  1.25 2 0  1.5 2 0  1.75 2 0  2 2 0  2.25 2 0  2.5 2 0  2.75 2 0  3 2 0  3.25 2 0  3.5 2 0  3.75 2 0  4 2 0  4.25 2 0  4.5 2 0  4.75 2 0  5 2 0  5.25 2 0  5.5 2 0  5.75 2 0  6 2 0  6.25 2 0  6.5 2 0  6.75 2 0  7 2 0  7.25 2 0  7.5 2 0  7.75 2 0  8 2 0  8.25 2 0  8.5 2 0  8.75 2 0  9 2 0  9.25 2 0  9.5 2 0  9.75 2 0  10 2 0  10.25 2 0  10.5 2 0  10.75 2 0  11 2 0  11.25 2 0 
[...]
<PointData  Scalars="f_23"> 
<DataArray  type="Float64"  Name="f_23"  format="ascii">1.8359574869168790e-01  1.8263426329271493e-01  1.8048558243395932e-01  1.7704734000451300e-01  1.7229415523885139e-01  1.6622583849201814e-01  1.5885712206911864e-01  1.5021751871191311e-01  1.4035394324746794e-01  1.2933400769691938e-01  1.1724914506605713e-01  1.0421704952985214e-01  9.0383044005967195e-02  7.5920073208561548e-02  6.1027117041207668e-02  4.5925935263044060e-02  3.0856185311345638e-02  1.6069089226148026e-02  1.8199474973528470e-03  -1.1640107873051806e-02  -2.4072673275744805e-02  -3.5260487029853266e-02  -4.5015267049966827e-02  -5.3184604753527494e-02  -5.9657626800339106e-02  -6.4369219057905103e-02  -6.7302681721046156e-02  -6.8490744708664758e-02  -6.8014918561760909e-02  -6.6003193587757802e-02  -6.2626137200546009e-02  -5.8091484104293011e-02  -5.2637370550209180e-02  -4.6524431426843857e-02  -4.0027050890975746e-02  -3.3424122898711169e-02  -2.6989725211135813e-02  -2.0984128891360948e-02  -1.5645549232613853e-02  -1.1182993788856359e-02  -7.7704849356896102e-03  -5.5428385702459664e-03  -4.5930791709593516e-03  -4.9714754857518272e-03  -6.6860987054897939e-03  -9.7047405309423091e-03  -1.3957983105170413e-02  -1.9343185083315704e-02  -2.5729135825831854e-02  -3.2961130508570538e-02  -4.0866231064710747e-02  -4.9258500062088706e-02  -5.7944025756540438e-02  -6.6725595124658643e-02  -7.5406915341112726e-02  -8.3796329704084405e-02  -9.1710017569711283e-02  -9.8974705468933069e-02  -1.0542994481409747e-01  -1.1093002811853996e-01  -1.1534561955941169e-01  -1.1856516765447929e-01  -1.2049614980408060e-01  -1.2106617349601487e-01  -1.2022393070636123e-01  -1.1793997425621330e-01  -1.1420726122898531e-01  -1.0904139217328301e-01  -1.0248046815938053e-01  -9.4584492337144485e-02  -8.5434258830628607e-02  -7.5129698653341362e-02  -6.3787687496946854e-02  -5.1539360091832145e-02  -3.8527015742866981e-02  -2.4900734587598960e-02  -1.0814849439468461e-02  3.5755697474266256e-03  1.8118064412089241e-02  3.2665831529385521e-02  4.7080354668562030e-02  6.1233549396409466e-02  7.5009388871447050e-02  8.8305011147995660e-02  1.0103133855567431e-01  1.1311325903731648e-01  1.2448942885189850e-01  1.3511175664333860e-01  1.4494462292132737e-01  1.5396387959376670e-01  1.6215566449381461e-01  1.6951505849445561e-01  1.7604460945257114e-01  1.8175274821155146e-01  1.8665212588966815e-01  1.9075790472930007e-01  1.9408602637982017e-01  1.9665142789810633e-01  1.9846594546295948e-01  1.9953466041690957e-01  1.9984497043930780e-01  1.8224305963994442e-01  1.8149476278277893e-01  1.7940365962085517e-01  1.7598895206828441e-01  1.7125279697410623e-01  1.6520210818606371e-01  1.5785390840680244e-01  1.4923872232156093e-01  1.3940406114281997e-01  1.2841794045845603e-01  1.1637205737216716e-01  1.0338423532288092e-01  8.9599783276936226e-02  7.5191480150556697e-02  6.0357984825413012e-02  4.5320585185212627e-02  3.0318328779108929e-02  1.5601710462925350e-02  1.4252132442301123e-03  -1.1960907611317479e-02  -2.4319151864430160e-02  -3.5433155955511698e-02  -4.5115501384884078e-02  -5.3214583173952119e-02  -5.9620250629268109e-02  -6.4268014942574087e-02  -6.7141692395654276e-02  -6.8274412028734702e-02  -6.7747962770486864e-02  -6.5690492646670040e-02  -6.2272609961852472e-02  -5.7701981033807775e-02  -5.2216575519463695e-02  -4.6076777693480370e-02  -3.9556653743937617e-02  -3.2934730590258289e-02  -2.6484688816040478e-02  -2.0466390734364862e-02  -1.5117648609569573e-02  -1.0647087943328927e-02  -7.2283826693038521e-03  -4.9960434591525046e-03  -4.0428391181010388e-03  -4.4188352508382498e-03  -6.1319521278080840e-03  -9.1498794107773822e-03  -1.3403140151101004e-02  -1.8789068959444422e-02  -2.5176457109180973e-02  -3.2410618224229526e-02  -4.0318640313091049e-02  -4.8714611990304614e-02  -5.7404641669038879e-02  -6.6191526821444538e-02  -7.4878973799776302e-02  -8.3275314008910806e-02  -9.1196705593666244e-02  -9.8469847306234037e-02  -1.0493425941896549e-01  -1.1044420309623713e-01  -1.1487031362802695e-01  -1.1810101497985802e-01  -1.2004376521822273e-01  -1.2062615754066948e-01  -1.1979687348935525e-01  -1.1752645725362557e-01  -1.1380785639250331e-01  -1.0865665798517150e-01  -1.0211094258869595e-01  -9.4230682957359591e-02  -8.5096630626894196e-02  -7.4808660247444814e-02  -6.3483576629844857e-02  -5.1252429222574586e-02  -3.8257418560774900e-02  -2.4648514118130457e-02  -1.0579928287481577e-02  3.7933965976808576e-03  1.8319133910945990e-02  3.2850613710813749e-02  4.7249450378480926e-02  6.1387684365922894e-02  7.5149403951126861e-02  8.8431848625162499e-02  1.0114602465182840e-01  1.1321688292501100e-01  1.2458311882060964e-01  1.3519665435120984e-01  1.4502185695770775e-01  1.5403453981342993e-01  1.6222077874936680e-01  1.6957557350213390e-01  1.7610137766207665e-01  1.8180652298086677e-01  1.8670356883933087e-01  1.9080761482260961e-01  1.9413462152066666e-01  1.9669979550789327e-01  1.9851615184281712e-01  1.9959374493610774e-01  1.9994233044921988e-01  1.7893476429842620e-01  1.7824487193957195e-01  1.7620351047850910e-01  1.7283029245488310e-01  1.6813606200972592e-01  1.6213323332581392e-01  1.5484204430142709e-01  1.4629513078040879e-01  1.3654157229456423e-01  1.2565061190309271e-01  1.1371487412567098e-01  1.0085278460311901e-01  8.7209882318833101e-02  7.2958757666568702e-02  5.8297429667036167e-02  4.3446083644396498e-02  2.8642216154209060e-02  1.4134363341745662e-02  1.7470664243772040e-04  -1.2989059107309119e-02  -2.5122156654402653e-02  -3.6011007039388795e-02  -4.5470939720042451e-02  -5.3352971510772867e-02  -5.9549370719138572e-02  -6.3997803111466828e-02  -6.6683928759056918e-02  -6.7642377632946976e-02  -6.6956077351138385e-02  -6.4753944116812387e-02  -6.1206985605934926e-02  -5.6522909848680358e-02  -5.0939391098503220e-02  -4.4716211181399956e-02  -3.8126566292149236e-02  -3.1447894041966337e-02  -2.4952621809261683e-02  -1.8899254989764264e-02  -1.3524207031182345e-02  -9.0347226250222269e-03  -5.6031673711782514e-03  -3.3628619965684952e-03  -2.4055387197594383e-03  -2.7804025042692765e-03  -4.4946987255596741e-03  -7.5156255059717009e-03  -1.1773384600929504e-02  -1.7165137888115453e-02  -2.3559624826431362e-02  -3.0802197342358631e-02  -3.8720040666497403e-02  -4.7127370448533948e-02  -5.5830426957412561e-02  -6.4632124887111578e-02  -7.3336260016570648e-02  -8.1751218603158163e-02  -8.9693178161806497e-02  -9.6988825302249032e-02  -1.0347764416605441e-01  -1.0901384538543686e-01  -1.1346800946173376e-01  -1.1672851063442502e-01  -1.1870276964162618e-01  -1.1931835924134780e-01  -1.1852395855269562e-01  -1.1629012495762325e-01  -1.1260982907418124e-01  -1.0749868230345881e-01  -1.0099478008738275e-01  -9.3158088785846277e-02  -8.4069320344540913e-02  -7.3828265727365811e-02  -6.2551593095205443e-02  -5.0370156304375163e-02  -3.7425898888314310e-02  -2.3868473293864045e-02  -9.8517201385340068e-03  4.4698358465124479e-03  1.8944319395121048e-02  3.3425531158130420e-02  4.7775559178223993e-02  6.1866903722936170e-02  7.5584082267227307e-02  8.8824717110429344e-02  1.0150013696170523e-01  1.1353554332311737e-01  1.2486980196523835e-01  1.3545492028296419e-01  1.4525526521725826e-01  1.5424656683964827e-01  1.6241474281461829e-01  1.6975457149138823e-01  1.7626823815391188e-01  1.8196378073902308e-01  1.8685346795873217e-01  1.9095215381558667e-01  1.9427566917881883e-01  1.9683934128497582e-01  1.9865680244174735e-01  1.9973941822450864e-01  2.0009689289781371e-01  1.7360111718872989e-01  1.7293555653426945e-01  1.7093555845530600e-01  1.6761340459354113e-01  1.6298100186316164e-01  1.5705361090151573e-01  1.4985429976835421e-01  1.4141822429454223e-01  1.3179666882183003e-01  1.2106075231796877e-01  1.0930458578161656e-01  9.6647601237942832e-02  8.3235765243938303e-02  6.9241428912262579e-02  5.4861642461618620e-02  4.0314866323995981e-02  2.5836131981311444e-02  1.1670830305044969e-02  -1.9325819972663841e-03  -1.4730580476793074e-02  -2.6492848048234961e-02  -3.7010390279339583e-02  -4.6103082827223418e-02  -5.3626300780691312e-02  -5.9476353607937932e-02  -6.3594526215964994e-02  -6.5969595915565407e-02  -6.6638751631753243e-02  -6.5686886098893546e-02  -6.3244269376790729e-02  -5.9482650508967429e-02  -5.4609880543136403e-02  -4.8863208057941837e-02  -4.2501466282736641e-02  -3.5796442076459149e-02  -2.9023780851346690e-02  -2.2453826254268106e-02  -1.6342809295524088e-02  -1.0924783477604290e-02  -6.4046511002961099e-03  -2.9525477429716779e-03  -6.9975733343764931e-04  2.6376900153150611e-04  -1.0968972657045308e-04  -1.8262114974958608e-03  -4.8521420317432428e-03  -9.1171254659278937e-03  -1.4518025596588255e-02  -2.0923497410376767e-02  -2.8178970051095407e-02  -3.6111814381092122e-02  -4.4536489682578798e-02  -5.3259493805983604e-02  -6.2083977847712253e-02  -7.0813928101827933e-02  -7.9257861569776031e-02  -8.7232023069153244e-02  -9.4563108149118724e-02  -1.0109056326060589e-01  -1.0666853063916532e-01  -1.1116750922454757e-01  -1.1447579524266521e-01  -1.1650074873149917e-01  -1.1716990823368821e-01  -1.1643194863568378e-01  -1.1425745042691317e-01  -1.1063942603527169e-01  -1.0559353346019719e-01  -9.9157901559059403e-02  -9.1392496506947640e-02  -8.2377975470483200e-02  -7.2214000437773332e-02  -6.1017020081329705e-02  -4.8917566877701740e-02  -3.6057155900711270e-02  -2.2584905800796657e-02  -8.6540269040807950e-03  5.5816673110581604e-03  1.9971072488238973e-02  3.4368794095552720e-02  4.8637730296880725e-02  6.2651167036381294e-02  7.6294353819813712e-02  8.9465564245608531e-02  1.0207667399056990e-01  1.1405330821248005e-01  1.2533461954608813e-01  1.3587275811289712e-01  1.4563208862609187e-01  1.5458819986279029e-01  1.6272674169967694e-01  1.7004211729855032e-01  1.7653605475790959e-01  1.8221608446550150e-01  1.8709395543541163e-01  1.9118403555469132e-01  1.9450175662911029e-01  1.9706218594132829e-01  1.9887882999579179e-01  1.9996277733884341e-01  2.0032212618779432e-01  1.6626811646777309e-01  1.6561983772760430e-01  1.6366044971356994e-01  1.6039849094535516e-01  1.5584580610193172e-01  1.5001949019689501e-01  1.4294516901019944e-01  1.3466073271741746e-01  1.2522010810626269e-01  1.1469678169202122e-01  1.0318679017939469e-01  9.0810885170926670e-02  7.7715592598666242e-02  6.4072932910569119e-02  5.0078644553722323e-02  3.5948854811762160e-02  2.1915258707181150e-02  8.2189854877214828e-03  -4.8965612349305097e-03  -1.7193522667492536e-02  -2.8447650462630446e-02  -3.8456198775199159e-02  -4.7045251220769572e-02  -5.4076146501775980e-02  -5.9450736384055188e-02  -6.3115281922888372e-02  -6.5062858929586187e-02  -6.5334197162320154e-02  -6.4016920591815130e-02  -6.1243193641227232e-02  -5.7185817825345014e-02  -5.2052871124891820e-02  -4.6081041671933408e-02  -3.9527875841434350e-02  -3.2663231567951173e-02  -2.5760290058569241e-02  -1.9086521628077811e-02  -1.2895014881477736e-02  -7.4165582966335339e-03  -2.8528106476553754e-03  6.2918164479514504e-04  2.9009558409862197e-03  3.8750259129328893e-03  3.5057211018352081e-03  1.7885706219827359e-03  -1.2416058357780967e-03  -5.5137014161162189e-03  -1.0924194795521388e-02  -1.7341657960804231e-02  -2.4611666684945313e-02  -3.2561893268748233e-02  -4.1007181967964074e-02  -4.9754436343613255e-02  -5.8607183296447325e-02  -6.7369718766898748e-02  -7.5850782123334737e-02  -8.3866746599108422e-02  -9.1244348087101593e-02  -9.7823000916982553e-02  -1.0345676467570909e-01  -1.0801602978746995e-01  -1.1138898200083225e-01  -1.1348288900640330e-01  -1.1422522899096478e-01  -1.1356465448089796e-01  -1.1147175898759894e-01  -1.0793959222792304e-01  -1.0298385508777548e-01  -9.6642700361606312e-02  -8.8976071046863392e-02  -8.0064524883196000e-02  -7.0007520890345523e-02  -5.8921178506136769e-02  -4.6935558933951023e-02  -3.4191556936027448e-02  -2.0837524664093984e-02  -7.0257727026077424e-03  7.0908960182318181e-03  2.1362467924030404e-02  3.5644682737976982e-02  4.9801575732729711e-02  6.3707530821807121e-02  7.7248815408613558e-02  9.0324603266443301e-02  1.0284752005222583e-01  1.1474376493705417e-01  1.2595287066230226e-01  1.3642716420159484e-01  1.4613098352484311e-01  1.5503969583383956e-01  1.6313855226719384e-01  1.7042140618342499e-01  1.7688931858853985e-01  1.8254907589075889e-01  1.8741165172164362e-01  1.9149065497389620e-01  1.9480081860058440e-01  1.9735659477404049e-01  1.9917092383132673e-01  2.0025421647645825e-01  2.0061348998625514e-01  1.5700429811264524e-01  1.5637286777895473e-01  1.5445760626194743e-01  1.5126590810105750e-01  1.4681009336994727e-01  1.4110906833275014e-01  1.3419106250463642e-01  1.2609692260468172e-01  1.1688355639822667e-01  1.0662718642564036e-01  9.5426097058324041e-02  8.3402572885709556e-02  7.0703755030626841e-02  5.7501194636591688e-02  4.3988961000169760e-02  3.0380261294725385e-02  1.6902640686616295e-02  3.7919438284076119e-03  -8.7146820837729361e-03  -2.0386388359259065e-02  -3.1006434883045393e-02  -4.0379809486913824e-02  -4.8340284985543401e-02  -5.4756594512866533e-02  -5.9537470904425571e-02  -6.2635362627734961e-02  -6.4048698886699215e-02  -6.3822626427923024e-02  -6.2048181671771223e-02  -5.8859899329889671e-02  -5.4431899461776588e-02  -4.8972544620023213e-02  -4.2717819473936727e-02  -3.5923654380701803e-02  -2.8857484378201539e-02  -2.1789395471605948e-02  -1.4983249848613243e-02  -8.6881921549688997e-03  -3.1309162588938444e-03  1.4909821796397142e-03  5.0143205354787820e-03  7.3141571444415238e-03  8.3060731615388801e-03  7.9469369919894072e-03  6.2342534975305683e-03  3.2042561342477925e-03  -1.0710617214689507e-03  -6.4877579661812516e-03  -1.2914368635720116e-02  -2.0196726136894130e-02  -2.8162956454097995e-02  -3.6628463162477733e-02  -4.5400733762479141e-02  -5.4283837845807682e-02  -6.3082525041697729e-02  -7.1605870859592871e-02  -7.9670457083018856e-02  -8.7103106749761142e-02  -9.3743218857549729e-02  -9.9444762591259672e-02  -1.0407799420568736e-01  -1.0753095225148997e-01  -1.0971077040964292e-01  -1.1054482458153719e-01  -1.0998170543094139e-01  -1.0799198284581253e-01  -1.0456870818278154e-01  -9.9727586630696446e-02  -9.3506747845592861e-02  -8.5966049515105419e-02  -7.7185865930420122e-02  -6.7265340920182215e-02  -5.6320119234262639e-02  -4.4479609031289634e-02  -3.1883866013739215e-02  -1.8680222147329430e-02  -5.0198043998644455e-03  8.9459016713553385e-03  2.3068293766148575e-02  3.7204569299120784e-02  5.1220215563436269e-02  6.4991009332936528e-02  7.8404499931406121e-02  9.1360984849315555e-02  1.0377401487647203e-01  1.1557048409272458e-01  1.2669036837030090e-01  1.3708617542607371e-01  1.4672216233146251e-01  1.5557336584882392e-01  1.6362448019599074e-01  1.7086860854741664e-01  1.7730591058818190e-01  1.8294216948929115e-01  1.8778730739790195e-01  1.9185388752374694e-01  1.9515565073270214e-01  1.9770614154155206e-01  1.9951747692046443e-01  2.0059929395368409e-01  2.0095787776116461e-01  1.4590812439897846e-01  1.4529487252909912e-01  1.4342905381730287e-01  1.4031823955401801e-01  1.3597589434216761e-01  1.3042303823281656e-01  1.2369071838978309e-01  1.1582297524417164e-01  1.0687996471674081e-01  9.6940906571550772e-02  8.6106541327443401e-02  7.4500797734865093e-02  6.2271408370702122e-02  4.9589267937183372e-02  3.6646407954784181e-02  2.3652558486859643e-02  1.0830373994646265e-02  -1.5904947710054811e-03  -1.3380209871295096e-02  -2.4316096662037913e-02  -3.4190160829179229e-02  -4.2816395157511906e-02  -5.0037526717287791e-02  -5.5730903981831795e-02  -5.9813283133124277e-02  -6.2244333540187269e-02  -6.3028737089728587e-02  -6.2216802079892858e-02  -5.9903551633102584e-02  -5.6226284198479103e-02  -5.1360645936089966e-02  -4.5515306399769362e-02  -3.8925391193593485e-02  -3.1844894748983707e-02  -2.4538365290215268e-02  -1.7272211983508381e-02  -1.0306020658845609e-02  -3.8842714629494604e-03  1.7711738020680830e-03  6.4675026591690318e-03  1.0046067840634087e-02  1.2386045658553356e-02  1.3406586806587030e-02  1.3067493803010978e-02  1.1368529052093627e-02  8.3475098653435255e-03  4.0773818283457936e-03  -1.3375184002022498e-03  -7.7657927569816446e-03  -1.5053689093383308e-02  -2.3029983239258846e-02  -3.1510852435664226e-02  -4.0304583160209705e-02  -4.9215988607495750e-02  -5.8050447451915774e-02  -6.6617513478990781e-02  -7.4734082064614515e-02  -8.2227130967176223e-02  -8.8936076512210471e-02  -9.4714799924636370e-02  -9.9433401470185340e-02  -1.0297973272256333e-01  -1.0526074142018045e-01  -1.0620364169881934e-01  -1.0575689823525572e-01  -1.0389098945208601e-01  -1.0059889570740907e-01  -9.5896246180547026e-02  -8.9821055139948508e-02  -8.2432985707084835e-02  -7.3812097263202314e-02  -6.4057060168855220e-02  -5.3282856046788181e-02  -4.1618019893224403e-02  -2.9201517265921080e-02  -1.6179381017111156e-02  -2.7012532242715031e-03  1.1083013940998488e-02  2.5026550931993016e-02  3.8988329438512492e-02  5.2835589655654387e-02  6.6445775794186576e-02  7.9707957572058702e-02  9.2523750085867509e-02  1.0480777179702072e-01  1.1648769811701823e-01  1.2750397576077654e-01  1.3780926183314937e-01  1.4736764394605806e-01  1.5615368662881904e-01  1.6415133804712914e-01  1.7135272225615783e-01  1.7775683766934050e-01  1.8336818282348530e-01  1.8819533543057584e-01  1.9224951866069961e-01  1.9554319725961145e-01  1.9808875246356203e-01  1.9989728553230265e-01  2.0097759331953935e-01  2.0133535006799863e-01  1.3310472124724265e-01  1.3251141895571683e-01  1.3070089279935951e-01  1.2768153724760800e-01  1.2346845014993124e-01  1.1808508461200001e-01  1.1156553822815736e-01  1.0395724773180440e-01  9.5323802819265294e-02  8.5747574604579324e-02  7.5331855878883539e-02  6.4202229148553586e-02  5.2506916412679509e-02  4.0415923513467983e-02  2.8118870488956543e-02  1.5821492893623303e-02  3.7408994055078987e-03  -7.9002321589309050e-03  -1.8880255895642333e-02  -2.8985632613551603e-02  -3.8018125543513019e-02  -4.5801764711880508e-02  -5.2189254442257103e-02  -5.7067543523556162e-02  -6.0362331635748216e-02  -6.2041340060330394e-02  -6.2116223813233964e-02  -6.0643044468773333e-02  -5.7721260411090748e-02  -5.3491229061859158e-02  -4.8130259385327459e-02  -4.1847306528228843e-02  -3.4876464084175308e-02  -2.7469479024866728e-02  -1.9887581723606319e-02  -1.2392978423257065e-02  -5.2403860089255093e-03  1.3310080242812806e-03  7.1048062581071606e-03  1.1893585972257774e-02  1.5543789442820009e-02  1.7939190812403479e-02  1.9002899582659775e-02  1.8697941027947546e-02  1.7026519348308664e-02  1.4028117758689356e-02  9.7766213759384220e-03  4.3766658834779645e-03  -2.0405797477670018e-03  -9.3219923392800098e-03  -1.7297243185866888e-02  -2.5783542947757587e-02  -3.4590234377009997e-02  -4.3523114810728847e-02  -5.2388404418165932e-02  -6.0996311656858468e-02  -6.9164181336417233e-02  -7.6719239982371248e-02  -8.3500975057161253e-02  -8.9363197090140775e-02  -9.4175836122584164e-02  -9.7826516594904087e-02  -1.0022193956827340e-01  -1.0128908055698728e-01  -1.0097618837278551e-01  -9.9253548553262363e-02  -9.6113957324278868e-02  -9.1572841365781185e-02  -8.5667956974491435e-02  -7.8458610711610227e-02  -7.0024362355995531e-02  -6.0463198772262694e-02  -4.9889201681038407e-02  -3.8429769667720562e-02  -2.6222490678068047e-02  -1.3411791099326567e-02  -1.4550719280187534e-04  1.3428468763204159e-02  2.7165322832551936e-02  4.0926110256955986e-02  5.4580109786250927e-02  6.8006685511455764e-02  8.1096638166235094e-02  9.3753062043017865e-02  1.0589175035239208e-01  1.1744120887629782e-01  1.2834234472573061e-01  1.3854789513430507e-01  1.4802165293711358e-01  1.5673753378361707e-01  1.6467851834016045e-01  1.7183549338850510e-01  1.7820601058196697e-01  1.8379298136096964e-01  1.8860333073332991e-01  1.9264663990037992e-01  1.9593381595776405e-01  1.9847583370699609e-01  2.0028259790543979e-01  2.0136197346140391e-01  2.0171902864937694e-01  1.1874466952108530e-01  1.1817308567096907e-01  1.1642357936699003e-01  1.13505687910