<?xml version="1.0"?>
<VTKFile type="UnstructuredGrid"  version="0.1"  >
<UnstructuredGrid>
<Piece  NumberOfPoints="10201" NumberOfCells="20000">
<Points>
<DataArray  type="Float64"  NumberOfComponents="3"  format="ascii">0 0 0  0.25 0 0  0.5 0 0  0.75 0 0  1 0 0  1.25 0 0  1.5 0 0  1.75 0 0  2 0 0  2.25 0 0  2.5 0 0  2.75 0 0  3 0 0  3.25 0 0  3.5 0 0  3.75 0 0  4 0 0  4.25 0 0  4.5 0 0  4.75 0 0  5 0 0  5.25 0 0  5.5 0 0  5.75 0 0  6 0 0  6.25 0 0  6.5 0 0  6.75 0 0  7 0 0  7.25 0 0  7.5 0 0  7.75 0 0  8 0 0  8.25 0 0  8.5 0 0  8.75 0 0  9 0 0  9.25 0 0  9.5 0 0  9.75 0 0  10 0 0  10.25 0 0  10.5 0 0  10.75 0 0  11 0 0  11.25 0 0  11.5 0 0  11.75 0 0  12 0 0  12.25 0 0  12.5 0 0  12.75 0 0  13 0 0  13.25 0 0  13.5 0 0  13.75 0 0  14 0 0  14.25 0 0  14.5 0 0  14.75 0 0  15 0 0  15.25 0 0  15.5 0 0  15.75 0 0  16 0 0  16.25 0 0  16.5 0 0  16.75 0 0  17 0 0  17.25 0 0  17.5 0 0  17.75 0 0  18 0 0  18.25 0 0  18.5 0 0  18.75 0 0  19 0 0  19.25 0 0  19.5 0 0  19.75 0 0  20 0 0  20.25 0 0  20.5 0 0  20.75 0 0  21 0 0  21.25 0 0  21.5 0 0  21.75 0 0  22 0 0  22.25 0 0  22.5 0 0  22.75 0 0  23 0 0  23.25 0 0  23.5 0 0  23.75 0 0  24 0 0  24.25 0 0  24.5 0 0  24.75 0 0  25 0 0  0 0.25 0  0.25 0.25 0  0.5 0.25 0  0.75 0.25 0  1 0.25 0  1.25 0.25 0  1.5 0.25 0  1.75 0.25 0  2 0.25 0  2.25 0.25 0  2.5 0.25 0  2.75 0.25 0  3 0.25 0  3.25 0.25 0  3.5 0.25 0  3.75 0.25 0  4 0.25 0  4.25 0.25 0  4.5 0.25 0  4.75 0.25 0  5 0.25 0  5.25 0.25 0  5.5 0.25 0  5.75 0.25 0  6 0.25 0  6.25 0.25 0  6.5 0.25 0  6.75 0.25 0  7 0.25 0  7.25 0.25 0  7.5 0.25 0  7.75 0.25 0  8 0.25 0  8.25 0.25 0  8.5 0.25 0  8.75 0.25 0  9 0.25 0  9.25 0.25 0  9.5 0.25 0  9.75 0.25 0  10 0.25 0  10.25 0.25 0  10.5 0.25 0  10.75 0.25 0  11 0.25 0  11.25 0.25 0  11.5 0.25 0  11.75 0.25 0  12 0.25 0  12.25 0.25 0  12.5 0.25 0  12.75 0.25 0  13 0.25 0  13.25 0.25 0  13.5 0.25 0  13.75 0.25 0  14 0.25 0  14.25 0.25 0  14.5 0.25 0  14.75 0.25 0  15 0.25 0  15.25 0.25 0  15.5 0.25 0  15.75 0.25 0  16 0.25 0  16.25 0.25 0  16.5 0.25 0  16.75 0.25 0  17 0.25 0  17.25 0.25 0  17.5 0.25 0  17.75 0.25 0  18 0.25 0  18.25 0.25 0  18.5 0.25 0  18.75 0.25 0  19 0.25 0  19.25 0.25 0  19.5 0.25 0  19.75 0.25 0  20 0.25 0  20.25 0.25 0  20.5 0.25 0  20.75 0.25 0  21 0.25 0  21.25 0.25 0  21.5 0.25 0  21.75 0.25 0  22 0.25 0  22.25 0.25 0  22.5 0.25 0  22.75 0.25 0  23 0.25 0  23.25 0.25 0  23.5 0.25 0  23.75 0.25 0  24 0.25 0  24.25 0.25 0  24.5 0.25 0  24.75 0.25 0  25 0.25 0  0 0.5 0  0.25 0.5 0  0.5 0.5 0  0.75 0.5 0  1 0.5 0  1.25 0.5 0  1.5 0.5 0  1.75 0.5 0  2 0.5 0  2.25 0.5 0  2.5 0.5 0  2.75 0.5 0  3 0.5 0  3.25 0.5 0  3.5 0.5 0  3.75 0.5 0  4 0.5 0  4.25 0.5 0  4.5 0.5 0  4.75 0.5 0  5 0.5 0  5.25 0.5 0  5.5 0.5 0  5.75 0.5 0  6 0.5 0  6.25 0.5 0  6.5 0.5 0  6.75 0.5 0  7 0.5 0  7.25 0.5 0  7.5 0.5 0  7.75 0.5 0  8 0.5 0  8.25 0.5 0  8.5 0.5 0  8.75 0.5 0  9 0.5 0  9.25 0.5 0  9.5 0.5 0  9.75 0.5 0  10 0.5 0  10.25 0.5 0  10.5 0.5 0  10.75 0.5 0  11 0.5 0  11.25 0.5 0  11.5 0.5 0  11.75 0.5 0  12 0.5 0  12.25 0.5 0  12.5 0.5 0  12.75 0.5 0  13 0.5 0  13.25 0.5 0  13.5 0.5 0  13.75 0.5 0  14 0.5 0  14.25 0.5 0  14.5 0.5 0  14.75 0.5 0  15 0.5 0  15.25 0.5 0  15.5 0.5 0  15.75 0.5 0  16 0.5 0  16.25 0.5 0  16.5 0.5 0  16.75 0.5 0  17 0.5 0  17.25 0.5 0  17.5 0.5 0  17.75 0.5 0  18 0.5 0  18.25 0.5 0  18.5 0.5 0  18.75 0.5 0  19 0.5 0  19.25 0.5 0  19.5 0.5 0  19.75 0.5 0  20 0.5 0  20.25 0.5 0  20.5 0.5 0  20.75 0.5 0  21 0.5 0  21.25 0.5 0  21.5 0.5 0  21.75 0.5 0  22 0.5 0  22.25 0.5 0  22.5 0.5 0  22.75 0.5 0  23 0.5 0  23.25 0.5 0  23.5 0.5 0  23.75 0.5 0  24 0.5 0  24.25 0.5 0  24.5 0.5 0  24.75 0.5 0  25 0.5 0  0 0.75 0  0.25 0.75 0  0.5 0.75 0  0.75 0.75 0  1 0.75 0  1.25 0.75 0  1.5 0.75 0  1.75 0.75 0  2 0.75 0  2.25 0.75 0  2.5 0.75 0  2.75 0.75 0  3 0.75 0  3.25 0.75 0  3.5 0.75 0  3.75 0.75 0  4 0.75 0  4.25 0.75 0  4.5 0.75 0  4.75 0.75 0  5 0.75 0  5.25 0.75 0  5.5 0.75 0  5.75 0.75 0  6 0.75 0  6.25 0.75 0  6.5 0.75 0  6.75 0.75 0  7 0.75 0  7.25 0.75 0  7.5 0.75 0  7.75 0.75 0  8 0.75 0  8.25 0.75 0  8.5 0.75 0  8.75 0.75 0  9 0.75 0  9.25 0.75 0  9.5 0.75 0  9.75 0.75 0  10 0.75 0  10.25 0.75 0  10.5 0.75 0  10.75 0.75 0  11 0.75 0  11.25 0.75 0  11.5 0.75 0  11.75 0.75 0  12 0.75 0  12.25 0.75 0  12.5 0.75 0  12.75 0.75 0  13 0.75 0  13.25 0.75 0  13.5 0.75 0  13.75 0.75 0  14 0.75 0  14.25 0.75 0  14.5 0.75 0  14.75 0.75 0  15 0.75 0  15.25 0.75 0  15.5 0.75 0  15.75 0.75 0  16 0.75 0  16.25 0.75 0  16.5 0.75 0  16.75 0.75 0  17 0.75 0  17.25 0.75 0  17.5 0.75 0  17.75 0.75 0  18 0.75 0  18.25 0.75 0  18.5 0.75 0  18.75 0.75 0  19 0.75 0  19.25 0.75 0  19.5 0.75 0  19.75 0.75 0  20 0.75 0  20.25 0.75 0  20.5 0.75 0  20.75 0.75 0  21 0.75 0  21.25 0.75 0  21.5 0.75 0  21.75 0.75 0  22 0.75 0  22.25 0.75 0  22.5 0.75 0  22.75 0.75 0  23 0.75 0  23.25 0.75 0  23.5 0.75 0  23.75 0.75 0  24 0.75 0  24.25 0.75 0  24.5 0.75 0  24.75 0.75 0  25 0.75 0  0 1 0  0.25 1 0  0.5 1 0  0.75 1 0  1 1 0  1.25 1 0  1.5 1 0  1.75 1 0  2 1 0  2.25 1 0  2.5 1 0  2.75 1 0  3 1 0  3.25 1 0  3.5 1 0  3.75 1 0  4 1 0  4.25 1 0  4.5 1 0  4.75 1 0  5 1 0  5.25 1 0  5.5 1 0  5.75 1 0  6 1 0  6.25 1 0  6.5 1 0  6.75 1 0  7 1 0  7.25 1 0  7.5 1 0  7.75 1 0  8 1 0  8.25 1 0  8.5 1 0  8.75 1 0  9 1 0  9.25 1 0  9.5 1 0  9.75 1 0  10 1 0  10.25 1 0  10.5 1 0  10.75 1 0  11 1 0  11.25 1 0  11.5 1 0  11.75 1 0  12 1 0  12.25 1 0  12.5 1 0  12.75 1 0  13 1 0  13.25 1 0  13.5 1 0  13.75 1 0  14 1 0  14.25 1 0  14.5 1 0  14.75 1 0  15 1 0  15.25 1 0  15.5 1 0  15.75 1 0  16 1 0  16.25 1 0  16.5 1 0  16.75 1 0  17 1 0  17.25 1 0  17.5 1 0  17.75 1 0  18 1 0  18.25 1 0  18.5 1 0  18.75 1 0  19 1 0  19.25 1 0  19.5 1 0  19.75 1 0  20 1 0  20.25 1 0  20.5 1 0  20.75 1 0  21 1 0  21.25 1 0  21.5 1 0  21.75 1 0  22 1 0  22.25 1 0  22.5 1 0  22.75 1 0  23 1 0  23.25 1 0  23.5 1 0  23.75 1 0  24 1 0  24.25 1 0  24.5 1 0  24.75 1 0  25 1 0  0 1.25 0  0.25 1.25 0  0.5 1.25 0  0.75 1.25 0  1 1.25 0  1.25 1.25 0  1.5 1.25 0  1.75 1.25 0  2 1.25 0  2.25 1.25 0  2.5 1.25 0  2.75 1.25 0  3 1.25 0  3.25 1.25 0  3.5 1.25 0  3.75 1.25 0  4 1.25 0  4.25 1.25 0  4.5 1.25 0  4.75 1.25 0  5 1.25 0  5.25 1.25 0  5.5 1.25 0  5.75 1.25 0  6 1.25 0  6.25 1.25 0  6.5 1.25 0  6.75 1.25 0  7 1.25 0  7.25 1.25 0  7.5 1.25 0  7.75 1.25 0  8 1.25 0  8.25 1.25 0  8.5 1.25 0  8.75 1.25 0  9 1.25 0  9.25 1.25 0  9.5 1.25 0  9.75 1.25 0  10 1.25 0  10.25 1.25 0  10.5 1.25 0  10.75 1.25 0  11 1.25 0  11.25 1.25 0  11.5 1.25 0  11.75 1.25 0  12 1.25 0  12.25 1.25 0  12.5 1.25 0  12.75 1.25 0  13 1.25 0  13.25 1.25 0  13.5 1.25 0  13.75 1.25 0  14 1.25 0  14.25 1.25 0  14.5 1.25 0  14.75 1.25 0  15 1.25 0  15.25 1.25 0  15.5 1.25 0  15.75 1.25 0  16 1.25 0  16.25 1.25 0  16.5 1.25 0  16.75 1.25 0  17 1.25 0  17.25 1.25 0  17.5 1.25 0  17.75 1.25 0  18 1.25 0  18.25 1.25 0  18.5 1.25 0  18.75 1.25 0  19 1.25 0  19.25 1.25 0  19.5 1.25 0  19.75 1.25 0  20 1.25 0  20.25 1.25 0  20.5 1.25 0  20.75 1.25 0  21 1.25 0  21.25 1.25 0  21.5 1.25 0  21.75 1.25 0  22 1.25 0  22.25 1.25 0  22.5 1.25 0  22.75 1.25 0  23 1.25 0  23.25 1.25 0  23.5 1.25 0  23.75 1.25 0  24 1.25 0  24.25 1.25 0  24.5 1.25 0  24.75 1.25 0  25 1.25 0  0 1.5 0  0.25 1.5 0  0.5 1.5 0  0.75 1.5 0  1 1.5 0  1.25 1.5 0  1.5 1.5 0  1.75 1.5 0  2 1.5 0  2.25 1.5 0  2.5 1.5 0  2.75 1.5 0  3 1.5 0  3.25 1.5 0  3.5 1.5 0  3.75 1.5 0  4 1.5 0  4.25 1.5 0  4.5 1.5 0  4.75 1.5 0  5 1.5 0  5.25 1.5 0  5.5 1.5 0  5.75 1.5 0  6 1.5 0  6.25 1.5 0  6.5 1.5 0  6.75 1.5 0  7 1.5 0  7.25 1.5 0  7.5 1.5 0  7.75 1.5 0  8 1.5 0  8.25 1.5 0  8.5 1.5 0  8.75 1.5 0  9 1.5 0  9.25 1.5 0  9.5 1.5 0  9.75 1.5 0  10 1.5 0  10.25 1.5 0  10.5 1.5 0  10.75 1.5 0  11 1.5 0  11.25 1.5 0  11.5 1.5 0  11.75 1.5 0  12 1.5 0  12.25 1.5 0  12.5 1.5 0  12.75 1.5 0  13 1.5 0  13.25 1.5 0  13.5 1.5 0  13.75 1.5 0  14 1.5 0  14.25 1.5 0  14.5 1.5 0  14.75 1.5 0  15 1.5 0  15.25 1.5 0  15.5 1.5 0  15.75 1.5 0  16 1.5 0  16.25 1.5 0  16.5 1.5 0  16.75 1.5 0  17 1.5 0  17.25 1.5 0  17.5 1.5 0  17.75 1.5 0  18 1.5 0  18.25 1.5 0  18.5 1.5 0  18.75 1.5 0  19 1.5 0  19.25 1.5 0  19.5 1.5 0  19.75 1.5 0  20 1.5 0  20.25 1.5 0  20.5 1.5 0  20.75 1.5 0  21 1.5 0  21.25 1.5 0  21.5 1.5 0  21.75 1.5 0  22 1.5 0  22.25 1.5 0  22.5 1.5 0  22.75 1.5 0  23 1.5 0  23.25 1.5 0  23.5 1.5 0  23.75 1.5 0  24 1.5 0  24.25 1.5 0  24.5 1.5 0  24.75 1.5 0  25 1.5 0  0 1.75 0  0.25 1.75 0  0.5 1.75 0  0.75 1.75 0  1 1.75 0  1.25 1.75 0  1.5 1.75 0  1.75 1.75 0  2 1.75 0  2.25 1.75 0  2.5 1.75 0  2.75 1.75 0  3 1.75 0  3.25 1.75 0  3.5 1.75 0  3.75 1.75 0  4 1.75 0  4.25 1.75 0  4.5 1.75 0  4.75 1.75 0  5 1.75 0  5.25 1.75 0  5.5 1.75 0  5.75 1.75 0  6 1.75 0  6.25 1.75 0  6.5 1.75 0  6.75 1.75 0  7 1.75 0  7.25 1.75 0  7.5 1.75 0  7.75 1.75 0  8 1.75 0  8.25 1.75 0  8.5 1.75 0  8.75 1.75 0  9 1.75 0  9.25 1.75 0  9.5 1.75 0  9.75 1.75 0  10 1.75 0  10.25 1.75 0  10.5 1.75 0  10.75 1.75 0  11 1.75 0  11.25 1.75 0  11.5 1.75 0  11.75 1.75 0  12 1.75 0  12.25 1.75 0  12.5 1.75 0  12.75 1.75 0  13 1.75 0  13.25 1.75 0  13.5 1.75 0  13.75 1.75 0  14 1.75 0  14.25 1.75 0  14.5 1.75 0  14.75 1.75 0  15 1.75 0  15.25 1.75 0  15.5 1.75 0  15.75 1.75 0  16 1.75 0  16.25 1.75 0  16.5 1.75 0  16.75 1.75 0  17 1.75 0  17.25 1.75 0  17.5 1.75 0  17.75 1.75 0  18 1.75 0  18.25 1.75 0  18.5 1.75 0  18.75 1.75 0  19 1.75 0  19.25 1.75 0  19.5 1.75 0  19.75 1.75 0  20 1.75 0  20.25 1.75 0  20.5 1.75 0  20.75 1.75 0  21 1.75 0  21.25 1.75 0  21.5 1.75 0  21.75 1.75 0  22 1.75 0  22.25 1.75 0  22.5 1.75 0  22.75 1.75 0  23 1.75 0  23.25 1.75 0  23.5 1.75 0  23.75 1.75 0  24 1.75 0  24.25 1.75 0  24.5 1.75 0  24.75 1.75 0  25 1.75 0  0 2 0  0.25 2 0  0.5 2 0  0.75 2 0  1 2 0  1.25 2 0  1.5 2 0  1.75 2 0  2 2 0  2.25 2 0  2.5 2 0  2.75 2 0  3 2 0  3.25 2 0  3.5 2 0  3.75 2 0  4 2 0  4.25 2 0  4.5 2 0  4.75 2 0  5 2 0  5.25 2 0  5.5 2 0  5.75 2 0  6 2 0  6.25 2 0  6.5 2 0  6.75 2 0  7 2 0  7.25 2 0  7.5 2 0  7.75 2 0  8 2 0  8.25 2 0  8.5 2 0  8.75 2 0  9 2 0  9.25 2 0  9.5 2 0  9.75 2 0  10 2 0  10.25 2 0  10.5 2 0  10.75 2 0  11 2 0  11.25 2 0 
[...]
<PointData  Scalars="f_26"> 
<DataArray  type="Float64"  Name="f_26"  format="ascii">9.9995146032508420e-01  9.9994786398721813e-01  9.9993791642860341e-01  9.9992014483470226e-01  9.9989221659833805e-01  9.9985053815245495e-01  9.9978976946110210e-01  9.9970213356188153e-01  9.9957641978737843e-01  9.9939655055494481e-01  9.9913952917930782e-01  9.9877250976023479e-01  9.9824862262018699e-01  9.9750103917116317e-01  9.9643455477022946e-01  9.9491369176792877e-01  9.9274596440887553e-01  9.8965850106349740e-01  9.8526571927833051e-01  9.7902530538872912e-01  9.7017963864258983e-01  9.5768061768074675e-01  9.4009876118551128e-01  9.1552449896288135e-01  8.8148375239736099e-01  8.3491434140805998e-01  7.7228415174040432e-01  6.8996426167413538e-01  5.8496433813934823e-01  4.5603198741145962e-01  3.0486854114728923e-01  1.3690246443879087e-01  -3.9031535050702129e-02  -2.1234236501090067e-01  -3.7309924844974807e-01  -5.1412451527385528e-01  -6.3191836788187772e-01  -7.2633612472291720e-01  -7.9953893795068165e-01  -8.5483442630454964e-01  -8.9578144653344749e-01  -9.2565594482198321e-01  -9.4721467346347954e-01  -9.6264873458603273e-01  -9.7363455555244849e-01  -9.8142181925528438e-01  -9.8692544606358756e-01  -9.9080689126776245e-01  -9.9354016141395562e-01  -9.9546283254644419e-01  -9.9681426808998930e-01  -9.9776366840391228e-01  -9.9843037595240880e-01  -9.9889843650573085e-01  -9.9922697345081435e-01  -9.9945754563265943e-01  -9.9961934923896090e-01  -9.9973288723640286e-01  -9.9981255372371536e-01  -9.9986845203381480e-01  -9.9990767275886505e-01  -9.9993519162219102e-01  -9.9995450001961128e-01  -9.9996804769621372e-01  -9.9997755346651540e-01  -9.9998422328000747e-01  -9.9998890324456691e-01  -9.9999218699948333e-01  -9.9999449105252503e-01  -9.9999610763731905e-01  -9.9999724179776794e-01  -9.9999803740583726e-01  -9.9999859541503999e-01  -9.9999898666664100e-01  -9.9999926087421653e-01  -9.9999945292708325e-01  -9.9999958731274841e-01  -9.9999968121972937e-01  -9.9999974671456293e-01  -9.9999979226928526e-01  -9.9999982383321062e-01  -9.9999984558498944e-01  -9.9999986046034395e-01  -9.9999987052241179e-01  -9.9999987722165262e-01  -9.9999988157826392e-01  -9.9999988431021869e-01  -9.9999988592314393e-01  -9.9999988677341833e-01  -9.9999988711247390e-01  -9.9999988711790433e-01  -9.9999988691531061e-01  -9.9999988659364358e-01  -9.9999988621597780e-01  -9.9999988582707655e-01  -9.9999988545869922e-01  -9.9999988513332305e-01  -9.9999988486675462e-01  -9.9999988466999334e-01  -9.9999988455071975e-01  -9.9999988451520017e-01  9.9995093734487761e-01  9.9994767925649453e-01  9.9993776447149763e-01  9.9991994194837575e-01  9.9989192090065371e-01  9.9985010790955975e-01  9.9978914946099307e-01  9.9970124616652267e-01  9.9957515486462933e-01  9.9939475203268879e-01  9.9913697648167510e-01  9.9876889216688902e-01  9.9824350417357754e-01  9.9749381138207827e-01  9.9642437436256370e-01  9.9489940170598457e-01  9.9272599976157960e-01  9.8963078935577653e-01  9.8522760230339779e-01  9.7897354332225461e-01  9.7011061813615462e-01  9.5759098401804532e-01  9.3998682913513854e-01  9.1539292141687689e-01  8.8134388402990316e-01  8.3479217948795681e-01  7.7222615887651247e-01  6.9003857232732424e-01  5.8525017805651758e-01  4.5659180172572222e-01  3.0570832046089336e-01  1.3794310824662465e-01  -3.7943275483866487e-02  -2.1137828953719306e-01  -3.7238217041244631e-01  -5.1369241322701875e-01  -6.3173493206783160e-01  -7.2632774546160128e-01  -7.9963000110583271e-01  -8.5496667680220773e-01  -8.9591829520509270e-01  -9.2577861847059428e-01  -9.4731616245594319e-01  -9.6272857732337347e-01  -9.7369530292641882e-01  -9.8146698826746326e-01  -9.8695849469881636e-01  -9.9083079601072388e-01  -9.9355730997111424e-01  -9.9547506073513459e-01  -9.9682294928830850e-01  -9.9776981129757925e-01  -9.9843471200685230e-01  -9.9890149141369611e-01  -9.9922912259515650e-01  -9.9945905581232641e-01  -9.9962040942509944e-01  -9.9973363093071088e-01  -9.9981307505610351e-01  -9.9986881727344135e-01  -9.9990792850482513e-01  -9.9993537061053506e-01  -9.9995462522930345e-01  -9.9996813524640982e-01  -9.9997761465775437e-01  -9.9998426603050350e-01  -9.9998893309986681e-01  -9.9999220784164222e-01  -9.9999450559788938e-01  -9.9999611778572528e-01  -9.9999724887738151e-01  -9.9999804234474099e-01  -9.9999859886143394e-01  -9.9999898907301088e-01  -9.9999926255624694e-01  -9.9999945410487956e-01  -9.9999958813966683e-01  -9.9999968180253451e-01  -9.9999974712751538e-01  -9.9999979256398341e-01  -9.9999982404546350e-01  -9.9999984573961431e-01  -9.9999986057451451e-01  -9.9999987060799245e-01  -9.9999987728682682e-01  -9.9999988162866826e-01  -9.9999988434973264e-01  -9.9999988595443978e-01  -9.9999988679834317e-01  -9.9999988713231491e-01  -9.9999988713357213e-01  -9.9999988692746611e-01  -9.9999988660278416e-01  -9.9999988622249580e-01  -9.9999988583129662e-01  -9.9999988546089924e-01  -9.9999988513373861e-01  -9.9999988486555202e-01  -9.9999988466715384e-01  -9.9999988454556721e-01  -9.9999988450435495e-01  9.9995073436739923e-01  9.9994755334550289e-01  9.9993766664621120e-01  9.9991983217475422e-01  9.9989177279670438e-01  9.9984989890948006e-01  9.9978885412731600e-01  9.9970083173536362e-01  9.9957457740785349e-01  9.9939395238085382e-01  9.9913587556931738e-01  9.9876738586392366e-01  9.9824145820925236e-01  9.9749105794212312e-01  9.9642071377415042e-01  9.9489461602429674e-01  9.9271989119936244e-01  9.8962326718332261e-01  9.8521885972028367e-01  9.7896439400111679e-01  9.7010310271541533e-01  9.5758940598469977e-01  9.3999941658272557e-01  9.1543427784931086e-01  8.8143816506322892e-01  8.3497632096549046e-01  7.7255132453500364e-01  6.9056649875094744e-01  5.8604045543423322e-01  4.5767871614563044e-01  3.0707349862622579e-01  1.3949965062436312e-01  -3.6338485808321601e-02  -2.0988291154790839e-01  -3.7111861969435889e-01  -5.1271799826453868e-01  -6.3104346791273769e-01  -7.2587250683503046e-01  -7.9935015120077790e-01  -8.5480564409036086e-01  -8.9583194360022000e-01  -9.2573624556888867e-01  -9.4729812187286189e-01  -9.6272310184530918e-01  -9.7369573998730174e-01  -9.8146978716191347e-01  -9.8696188532936191e-01  -9.9083398031102654e-01  -9.9355999267139550e-01  -9.9547718911578009e-01  -9.9682457514809963e-01  -9.9777102147528918e-01  -9.9843559590999009e-01  -9.9890212771581655e-01  -9.9922957534897983e-01  -9.9945937482435954e-01  -9.9962063227477882e-01  -9.9973378537768021e-01  -9.9981318128618291e-01  -9.9986888978652988e-01  -9.9990797761351380e-01  -9.9993540358786337e-01  -9.9995464716668714e-01  -9.9996814968378089e-01  -9.9997762404029722e-01  -9.9998427203625717e-01  -9.9998893687269430e-01  -9.9999221015569373e-01  -9.9999450697295444e-01  -9.9999611856766035e-01  -9.9999724929386957e-01  -9.9999804254373592e-01  -9.9999859893751786e-01  -9.9999898908535756e-01  -9.9999926254078919e-01  -9.9999945408249191e-01  -9.9999958812162748e-01  -9.9999968179413790e-01  -9.9999974713043582e-01  -9.9999979257780347e-01  -9.9999982406864574e-01  -9.9999984577010748e-01  -9.9999986061012047e-01  -9.9999987064658125e-01  -9.9999987732645423e-01  -9.9999988166763398e-01  -9.9999988438660259e-01  -9.9999988598804679e-01  -9.9999988682777696e-01  -9.9999988715690580e-01  -9.9999988715287191e-01  -9.9999988694122766e-01  -9.9999988661094064e-01  -9.9999988622513858e-01  -9.9999988582865162e-01  -9.9999988545329943e-01  -9.9999988512158666e-01  -9.9999988484926627e-01  -9.9999988464707956e-01  -9.9999988452186317e-01  -9.9999988447712262e-01  9.9995067664033066e-01  9.9994751774719215e-01  9.9993765232287124e-01  9.9991983085221992e-01  9.9989178006738033e-01  9.9984991568120585e-01  9.9978888671629906e-01  9.9970089300942988e-01  9.9957468968976448e-01  9.9939415277538923e-01  9.9913622487481091e-01  9.9876798306657399e-01  9.9824246385806303e-01  9.9749273174605302e-01  9.9642347499511974e-01  9.9489914031700077e-01  9.9272726538815903e-01  9.8963523521104446e-01  9.8523820973514531e-01  9.7899555836098140e-01  9.7015306639309051e-01  9.5766903311068829e-01  9.4012528142541218e-01  9.1563096810170397e-01  8.8174071763665829e-01  8.3543184510133373e-01  7.7321795056590303e-01  6.9150690377683999e-01  5.8730739058405235e-01  4.5929282626918039e-01  3.0900002700997808e-01  1.4163728665936731e-01  -3.4143906770340633e-02  -2.0779997799885142e-01  -3.6928475968969859e-01  -5.1120983156977795e-01  -6.2987393092200183e-01  -7.2500827205399954e-01  -7.9873517686782358e-01  -8.5438015874005002e-01  -8.9554329679518629e-01  -9.2554289351223340e-01  -9.4716951050275389e-01  -9.6263778007726875e-01  -9.7363910145463628e-01  -9.8143207756746764e-01  -9.8693666425471227e-01  -9.9081701862392990e-01  -9.9354851666771915e-01  -9.9546937633425836e-01  -9.9681922346096086e-01  -9.9776733376183646e-01  -9.9843304039957081e-01  -9.9890034736705779e-01  -9.9922832886815460e-01  -9.9945849809235177e-01  -9.9962001297223613e-01  -9.9973334618375664e-01  -9.9981286867868979e-01  -9.9986866652536655e-01  -9.9990781766262971e-01  -9.9993528866281556e-01  -9.9995456437323671e-01  -9.9996808989356534e-01  -9.9997758076756638e-01  -9.9998424065724678e-01  -9.9998891408060608e-01  -9.9999219357852576e-01  -9.9999449490444192e-01  -9.9999610977713482e-01  -9.9999724289141700e-01  -9.9999803788425423e-01  -9.9999859555224291e-01  -9.9999898663285136e-01  -9.9999926077176426e-01  -9.9999945281450231e-01  -9.9999958722081583e-01  -9.9999968116204285e-01  -9.9999974669443803e-01  -9.9999979228419300e-01  -9.9999982387758490e-01  -9.9999984565196298e-01  -9.9999986054279189e-01  -9.9999987061355000e-01  -9.9999987731535933e-01  -9.9999988166922926e-01  -9.9999988439399357e-01  -9.9999988599613054e-01  -9.9999988683282948e-01  -9.9999988715627719e-01  -9.9999988714475940e-01  -9.9999988692450459e-01  -9.9999988658502570e-01  -9.9999988618989244e-01  -9.9999988578429266e-01  -9.9999988540033047e-01  -9.9999988506072779e-01  -9.9999988478139068e-01  -9.9999988457315825e-01  -9.9999988444295562e-01  -9.9999988439452103e-01  9.9995071696681459e-01  9.9994757029873937e-01  9.9993773055318902e-01  9.9991994606085233e-01  9.9989194815612592e-01  9.9985016170415930e-01  9.9978924939060632e-01  9.9970143099355524e-01  9.9957549110884714e-01  9.9939534972828947e-01  9.9913801541340985e-01  9.9877066440610418e-01  9.9824648251989212e-01  9.9749875925074694e-01  9.9643252205389754e-01  9.9491272879891701e-01  9.9274768635422073e-01  9.8966593360195521e-01  9.8528435185534313e-01  9.7906485524371578e-01  9.7025693818110714e-01  9.5782419139105579e-01  9.4035574632884156e-01  9.1597036882458471e-01  8.8223436825756152e-01  8.3613746914140086e-01  7.7420309245236230e-01  6.9284040487699416e-01  5.8904281933547031e-01  4.6144486674853891e-01  3.1152098845469423e-01  1.4440697531823338e-01  -3.1302770775399225e-02  -2.0508126420833472e-01  -3.6685072524832812e-01  -5.0915824659968778e-01  -6.2823220365387444e-01  -7.2374935100889115e-01  -7.9780162119280118e-01  -8.5370516736965596e-01  -8.9506410583124674e-01  -9.2520697164975851e-01  -9.4693593863575298e-01  -9.6247614931181347e-01  -9.7352750982799408e-01  -9.8135507287087131e-01  -9.8688348835787354e-01  -9.9078024155135536e-01  -9.9352302936852877e-01  -9.9545167200461249e-01  -9.9680689515653131e-01  -9.9775872756849349e-01  -9.9842701770361741e-01  -9.9889612248213633e-01  -9.9922535825251824e-01  -9.9945640472339237e-01  -9.9961853463792494e-01  -9.9973230004714275e-01  -9.9981212693027599e-01  -9.9986813960697007e-01  -9.9990744267522524e-01  -9.9993502133392043e-01  -9.9995437347564975e-01  -9.9996795335722899e-01  -9.9997748296418576e-01  -9.9998417049944843e-01  -9.9998886368830742e-01  -9.9999215734126456e-01  -9.9999446882076104e-01  -9.9999609098825726e-01  -9.9999722935145496e-01  -9.9999802812656113e-01  -9.9999858852359169e-01  -9.9999898157555589e-01  -9.9999925713974513e-01  -9.9999945021343006e-01  -9.9999958536535960e-01  -9.9999967984529237e-01  -9.9999974576600148e-01  -9.9999979163448849e-01  -9.9999982342655913e-01  -9.9999984534098074e-01  -9.9999986032879684e-01  -9.9999987046485794e-01  -9.9999987720862293e-01  -9.9999988158724618e-01  -9.9999988432412135e-01  -9.9999988592913847e-01  -9.9999988676206497e-01  -9.9999988707705822e-01  -9.9999988705392928e-01  -9.9999988682010255e-01  -9.9999988646603988e-01  -9.9999988605607193e-01  -9.9999988563599895e-01  -9.9999988523841765e-01  -9.9999988488644254e-01  -9.9999988459628864e-01  -9.9999988437904141e-01  -9.9999988424184338e-01  -9.9999988418866781e-01  9.9995084061838435e-01  9.9994770695697899e-01  9.9993790353528678e-01  9.9992018142871097e-01  9.9989228019327592e-01  9.9985063914276218e-01  9.9978994322632020e-01  9.9970244536978359e-01  9.9957697915772170e-01  9.9939753691713984e-01  9.9914123404756372e-01  9.9877540463683445e-01  9.9825346772658152e-01  9.9750905733877493e-01  9.9644770947680883e-01  9.9493513150846025e-01  9.9278073192880756e-01  9.8971466173367506e-01  9.8535614545591177e-01  9.7917046855285617e-01  9.7041190322769910e-01  9.5805066199073141e-01  9.4068475489313186e-01  9.1644426753593011e-01  8.8290882354750411e-01  8.3708171311485469e-01  7.7549627418897094e-01  6.9456126126611273e-01  5.9125055641732827e-01  4.6415259450093782e-01  3.1466970161369978e-01  1.4785456974950148e-01  -2.7764133157361974e-02  -2.0167979091247587e-01  -3.6378043563389884e-01  -5.0654063437361918e-01  -6.2610766223315184e-01  -7.2209347207064900e-01  -7.9655175004119960e-01  -8.5278459561446152e-01  -8.9439826528597877e-01  -9.2473160158071266e-01  -9.4659959584106523e-01  -9.6223958714296176e-01  -9.7336173892584599e-01  -9.8123914365815812e-01  -9.8680248240788282e-01  -9.9072363789030948e-01  -9.9348345392047854e-01  -9.9542397530961191e-01  -9.9678748815573770e-01  -9.9774511051802295e-01  -9.9841744931342669e-01  -9.9888938893747881e-01  -9.9922061252247751e-01  -9.9945305495796277e-01  -9.9961616669619113e-01  -9.9973062370117283e-01  -9.9981093847731484e-01  -9.9986729585407275e-01  -9.9990684281163755e-01  -9.9993459428044584e-01  -9.9995406904230588e-01  -9.9996773605295264e-01  -9.9997732765634029e-01  -9.9998405936566082e-01  -9.9998878407261904e-01  -9.9999210024408181e-01  -9.9999442783370174e-01  -9.9999606154175924e-01  -9.9999720818258231e-01  -9.9999801290205625e-01  -9.9999857757253685e-01  -9.9999897369952573e-01  -9.9999925147781688e-01  -9.9999944614608149e-01  -9.9999958244596776e-01  -9.9999967775124754e-01  -9.9999974426377969e-01  -9.9999979055466892e-01  -9.9999982264593501e-01  -9.9999984476973702e-01  -9.9999985990131057e-01  -9.9999987013309100e-01  -9.9999987693737225e-01  -9.9999988135072693e-01  -9.9999988410350438e-01  -9.9999988571077447e-01  -9.9999988653619953e-01  -9.9999988683690044e-01  -9.9999988679497176e-01  -9.9999988653962202e-01  -9.9999988616272550e-01  -9.9999988572974374e-01  -9.9999988528739003e-01  -9.9999988486900138e-01  -9.9999988449829069e-01  -9.9999988419195529e-01  -9.9999988396146777e-01  -9.9999988381428273e-01  -9.9999988375461890e-01  9.9995104234601317e-01  9.9994792529818599e-01  9.9993817160395282e-01  9.9992053849160423e-01  9.9989277780855290e-01  9.9985134914482643e-01  9.9979096850037164e-01  9.9970393502450272e-01  9.9957915040202105e-01  9.9940070691320582e-01  9.9914586644552161e-01  9.9878217760666899e-01  9.9826337336325954e-01  9.9752354669029097e-01  9.9646890359106399e-01  9.9496612732984946e-01  9.9282604303806032e-01  9.8978084783210352e-01  9.8545269997623819e-01  9.7931104690994408e-01  9.7061597539322664e-01  9.5834564199586680e-01  9.4110855833283413e-01  9.1704801294350491e-01  8.8375893932251404e-01  8.3825997079970238e-01  7.7709531770677298e-01  6.9667251944379593e-01  5.9394218594909920e-01  4.6743896900682413e-01  3.1848145195126865e-01  1.5202561194355113e-01  -2.3477229656403129e-02  -1.9754600415306187e-01  -3.6003109052192794e-01  -5.0332395361995252e-01  -6.2347725697958900e-01  -7.2002592349172456e-01  -7.9497683660330054e-01  -8.5161351815979014e-01  -8.9354302405331143e-01  -9.2411516719758735e-01  -9.4615941766388056e-01  -9.6192729147216527e-01  -9.7314112387325136e-01  -9.8108371668827243e-01  -9.8669315143288061e-01  -9.9064678696097153e-01  -9.9342944025208801e-01  -9.9538600097420293e-01  -9.9676077430585053e-01  -9.9772630304462973e-01  -9.9840419578417861e-01  -9.9888003963609362e-01  -9.9921401016756528e-01  -9.9944838721693152e-01  -9.9961286290508866e-01  -9.9972828259056290e-01  -9.9980927759951344e-01  -9.9986611618317001e-01  -9.9990600394831608e-01  -9.9993399707023667e-01  -9.9995364337907477e-01  -9.9996743231190410e-01  -9.9997711066991535e-01  -9.9998390418283090e-01  -9.9998867297026250e-01  -9.9999202061839010e-01  -9.9999437071080910e-01  -9.9999602052457381e-01  -9.9999717870523430e-01  -9.9999799170152914e-01  -9.9999856231380158e-01  -9.9999896270929045e-01  -9.9999924355521785e-01  -9.9999944042793343e-01  -9.9999957831074915e-01  -9.9999967475061413e-01  -9.9999974207366371e-01  -9.9999978894032848e-01  -9.9999982143695032e-01  -9.9999984384210605e-01  -9.9999985916461698e-01  -9.9999986952130071e-01  -9.9999987640222610e-01  -9.9999988085699298e-01  -9.9999988362556358e-01  -9.9999988523016059e-01  -9.9999988603982426e-01  -9.9999988631576731e-01  -9.9999988624324054e-01  -9.9999988595392220e-01  -9.9999988554164654e-01  -9.9999988507345006e-01  -9.9999988459732436e-01  -9.9999988414764829e-01  -9.9999988374898463e-01  -9.9999988341871759e-01  -9.9999988316886668e-01  -9.9999988300730713e-01  -9.9999988293855369e-01  9.9995132011220977e-01  9.9994822413138740e-01  9.9993853473042771e-01  9.9992101791649912e-01  9.9989344181726070e-01  9.9985229223683847e-01  9.9979232504189219e-01  9.9970589854333936e-01  9.9958200129643038e-01  9.9940485254527134e-01  9.9915189932437343e-01  9.9879095987230460e-01  9.9827615936599867e-01  9.9754216052425970e-01  9.9649599547403256e-01  9.9500554225993409e-01  9.9288334761806674e-01  9.8986407644667318e-01  9.8557339818745204e-01  9.7948570346898789e-01  9.7086793379087222e-01  9.5870754528813218e-01  9.4162526445871542e-01  9.1777965122196892e-01  8.8478326620986003e-01  8.3967234602794882e-01  7.7900354072562672e-01  6.9918297125462048e-01  5.9713453339670830e-01  4.7133102071876709e-01  3.2299428350331322e-01  1.5696775752099762e-01  -1.8388531394131224e-02  -1.9262566010248375e-01  -3.5555271695886687e-01  -4.9946591592046757e-01  -6.2030769211098935e-01  -7.1752195147952391e-01  -7.9305922570775989e-01  -8.5017965758826031e-01  -8.9248992820323947e-01  -9.2335182712609754e-01  -9.4561131458666059e-01  -9.6153634695448675e-01  -9.7286354752695181e-01  -9.8088723021699509e-01  -9.8655433034614226e-01  -9.9054881367870962e-01  -9.9336032908948135e-01  -9.9533725214466529e-01  -9.9672637969038103e-01  -9.9770202443213996e-01  -9.9838704697849490e-01  -9.9886791774682238e-01  -9.9920543448013432e-01  -9.9944231488341906e-01  -9.9960855913377378e-01  -9.9972522933178742e-01  -9.9980710934915984e-01  -9.9986457485646352e-01  -9.9990490715269154e-01  -9.9993321578927585e-01  -9.9995308626673041e-01  -9.9996703463121017e-01  -9.9997682649663966e-01  -9.9998370090576338e-01  -9.9998852740820232e-01  -9.9999191627610984e-01  -9.9999429583811750e-01  -9.9999596674214719e-01  -9.9999714003079387e-01  -9.9999796385906814e-01  -9.9999854224312046e-01  -9.9999894821741919e-01  -9.9999923306843896e-01  -9.9999943281520232e-01  -9.9999957275783469e-01  -9.9999967067030604e-01  -9.9999973904165251e-01  -9.9999978664937639e-01  -9.9999981966410800e-01  -9.9999984242524187e-01  -9.9999985798560109e-01  -9.9999986849394740e-01  -9.9999987546364266e-01  -9.9999987996136697e-01  -9.9999988273969753e-01  -9.9999988433025755e-01  -9.9999988510916993e-01  -9.9999988534305240e-01  -9.9999988522134076e-01  -9.9999988487900293e-01  -9.9999988441249843e-01  -9.9999988389098671e-01  -9.9999988336419277e-01  -9.9999988286791874e-01  -9.9999988242789339e-01  -9.9999988206244739e-01  -9.9999988178434995e-01  -9.9999988160204278e-