<?xml version="1.0"?>
<VTKFile type="UnstructuredGrid"  version="0.1"  >
<UnstructuredGrid>
<Piece  NumberOfPoints="10201" NumberOfCells="20000">
<Points>
<DataArray  type="Float64"  NumberOfComponents="3"  format="ascii">0 0 0  0.25 0 0  0.5 0 0  0.75 0 0  1 0 0  1.25 0 0  1.5 0 0  1.75 0 0  2 0 0  2.25 0 0  2.5 0 0  2.75 0 0  3 0 0  3.25 0 0  3.5 0 0  3.75 0 0  4 0 0  4.25 0 0  4.5 0 0  4.75 0 0  5 0 0  5.25 0 0  5.5 0 0  5.75 0 0  6 0 0  6.25 0 0  6.5 0 0  6.75 0 0  7 0 0  7.25 0 0  7.5 0 0  7.75 0 0  8 0 0  8.25 0 0  8.5 0 0  8.75 0 0  9 0 0  9.25 0 0  9.5 0 0  9.75 0 0  10 0 0  10.25 0 0  10.5 0 0  10.75 0 0  11 0 0  11.25 0 0  11.5 0 0  11.75 0 0  12 0 0  12.25 0 0  12.5 0 0  12.75 0 0  13 0 0  13.25 0 0  13.5 0 0  13.75 0 0  14 0 0  14.25 0 0  14.5 0 0  14.75 0 0  15 0 0  15.25 0 0  15.5 0 0  15.75 0 0  16 0 0  16.25 0 0  16.5 0 0  16.75 0 0  17 0 0  17.25 0 0  17.5 0 0  17.75 0 0  18 0 0  18.25 0 0  18.5 0 0  18.75 0 0  19 0 0  19.25 0 0  19.5 0 0  19.75 0 0  20 0 0  20.25 0 0  20.5 0 0  20.75 0 0  21 0 0  21.25 0 0  21.5 0 0  21.75 0 0  22 0 0  22.25 0 0  22.5 0 0  22.75 0 0  23 0 0  23.25 0 0  23.5 0 0  23.75 0 0  24 0 0  24.25 0 0  24.5 0 0  24.75 0 0  25 0 0  0 0.25 0  0.25 0.25 0  0.5 0.25 0  0.75 0.25 0  1 0.25 0  1.25 0.25 0  1.5 0.25 0  1.75 0.25 0  2 0.25 0  2.25 0.25 0  2.5 0.25 0  2.75 0.25 0  3 0.25 0  3.25 0.25 0  3.5 0.25 0  3.75 0.25 0  4 0.25 0  4.25 0.25 0  4.5 0.25 0  4.75 0.25 0  5 0.25 0  5.25 0.25 0  5.5 0.25 0  5.75 0.25 0  6 0.25 0  6.25 0.25 0  6.5 0.25 0  6.75 0.25 0  7 0.25 0  7.25 0.25 0  7.5 0.25 0  7.75 0.25 0  8 0.25 0  8.25 0.25 0  8.5 0.25 0  8.75 0.25 0  9 0.25 0  9.25 0.25 0  9.5 0.25 0  9.75 0.25 0  10 0.25 0  10.25 0.25 0  10.5 0.25 0  10.75 0.25 0  11 0.25 0  11.25 0.25 0  11.5 0.25 0  11.75 0.25 0  12 0.25 0  12.25 0.25 0  12.5 0.25 0  12.75 0.25 0  13 0.25 0  13.25 0.25 0  13.5 0.25 0  13.75 0.25 0  14 0.25 0  14.25 0.25 0  14.5 0.25 0  14.75 0.25 0  15 0.25 0  15.25 0.25 0  15.5 0.25 0  15.75 0.25 0  16 0.25 0  16.25 0.25 0  16.5 0.25 0  16.75 0.25 0  17 0.25 0  17.25 0.25 0  17.5 0.25 0  17.75 0.25 0  18 0.25 0  18.25 0.25 0  18.5 0.25 0  18.75 0.25 0  19 0.25 0  19.25 0.25 0  19.5 0.25 0  19.75 0.25 0  20 0.25 0  20.25 0.25 0  20.5 0.25 0  20.75 0.25 0  21 0.25 0  21.25 0.25 0  21.5 0.25 0  21.75 0.25 0  22 0.25 0  22.25 0.25 0  22.5 0.25 0  22.75 0.25 0  23 0.25 0  23.25 0.25 0  23.5 0.25 0  23.75 0.25 0  24 0.25 0  24.25 0.25 0  24.5 0.25 0  24.75 0.25 0  25 0.25 0  0 0.5 0  0.25 0.5 0  0.5 0.5 0  0.75 0.5 0  1 0.5 0  1.25 0.5 0  1.5 0.5 0  1.75 0.5 0  2 0.5 0  2.25 0.5 0  2.5 0.5 0  2.75 0.5 0  3 0.5 0  3.25 0.5 0  3.5 0.5 0  3.75 0.5 0  4 0.5 0  4.25 0.5 0  4.5 0.5 0  4.75 0.5 0  5 0.5 0  5.25 0.5 0  5.5 0.5 0  5.75 0.5 0  6 0.5 0  6.25 0.5 0  6.5 0.5 0  6.75 0.5 0  7 0.5 0  7.25 0.5 0  7.5 0.5 0  7.75 0.5 0  8 0.5 0  8.25 0.5 0  8.5 0.5 0  8.75 0.5 0  9 0.5 0  9.25 0.5 0  9.5 0.5 0  9.75 0.5 0  10 0.5 0  10.25 0.5 0  10.5 0.5 0  10.75 0.5 0  11 0.5 0  11.25 0.5 0  11.5 0.5 0  11.75 0.5 0  12 0.5 0  12.25 0.5 0  12.5 0.5 0  12.75 0.5 0  13 0.5 0  13.25 0.5 0  13.5 0.5 0  13.75 0.5 0  14 0.5 0  14.25 0.5 0  14.5 0.5 0  14.75 0.5 0  15 0.5 0  15.25 0.5 0  15.5 0.5 0  15.75 0.5 0  16 0.5 0  16.25 0.5 0  16.5 0.5 0  16.75 0.5 0  17 0.5 0  17.25 0.5 0  17.5 0.5 0  17.75 0.5 0  18 0.5 0  18.25 0.5 0  18.5 0.5 0  18.75 0.5 0  19 0.5 0  19.25 0.5 0  19.5 0.5 0  19.75 0.5 0  20 0.5 0  20.25 0.5 0  20.5 0.5 0  20.75 0.5 0  21 0.5 0  21.25 0.5 0  21.5 0.5 0  21.75 0.5 0  22 0.5 0  22.25 0.5 0  22.5 0.5 0  22.75 0.5 0  23 0.5 0  23.25 0.5 0  23.5 0.5 0  23.75 0.5 0  24 0.5 0  24.25 0.5 0  24.5 0.5 0  24.75 0.5 0  25 0.5 0  0 0.75 0  0.25 0.75 0  0.5 0.75 0  0.75 0.75 0  1 0.75 0  1.25 0.75 0  1.5 0.75 0  1.75 0.75 0  2 0.75 0  2.25 0.75 0  2.5 0.75 0  2.75 0.75 0  3 0.75 0  3.25 0.75 0  3.5 0.75 0  3.75 0.75 0  4 0.75 0  4.25 0.75 0  4.5 0.75 0  4.75 0.75 0  5 0.75 0  5.25 0.75 0  5.5 0.75 0  5.75 0.75 0  6 0.75 0  6.25 0.75 0  6.5 0.75 0  6.75 0.75 0  7 0.75 0  7.25 0.75 0  7.5 0.75 0  7.75 0.75 0  8 0.75 0  8.25 0.75 0  8.5 0.75 0  8.75 0.75 0  9 0.75 0  9.25 0.75 0  9.5 0.75 0  9.75 0.75 0  10 0.75 0  10.25 0.75 0  10.5 0.75 0  10.75 0.75 0  11 0.75 0  11.25 0.75 0  11.5 0.75 0  11.75 0.75 0  12 0.75 0  12.25 0.75 0  12.5 0.75 0  12.75 0.75 0  13 0.75 0  13.25 0.75 0  13.5 0.75 0  13.75 0.75 0  14 0.75 0  14.25 0.75 0  14.5 0.75 0  14.75 0.75 0  15 0.75 0  15.25 0.75 0  15.5 0.75 0  15.75 0.75 0  16 0.75 0  16.25 0.75 0  16.5 0.75 0  16.75 0.75 0  17 0.75 0  17.25 0.75 0  17.5 0.75 0  17.75 0.75 0  18 0.75 0  18.25 0.75 0  18.5 0.75 0  18.75 0.75 0  19 0.75 0  19.25 0.75 0  19.5 0.75 0  19.75 0.75 0  20 0.75 0  20.25 0.75 0  20.5 0.75 0  20.75 0.75 0  21 0.75 0  21.25 0.75 0  21.5 0.75 0  21.75 0.75 0  22 0.75 0  22.25 0.75 0  22.5 0.75 0  22.75 0.75 0  23 0.75 0  23.25 0.75 0  23.5 0.75 0  23.75 0.75 0  24 0.75 0  24.25 0.75 0  24.5 0.75 0  24.75 0.75 0  25 0.75 0  0 1 0  0.25 1 0  0.5 1 0  0.75 1 0  1 1 0  1.25 1 0  1.5 1 0  1.75 1 0  2 1 0  2.25 1 0  2.5 1 0  2.75 1 0  3 1 0  3.25 1 0  3.5 1 0  3.75 1 0  4 1 0  4.25 1 0  4.5 1 0  4.75 1 0  5 1 0  5.25 1 0  5.5 1 0  5.75 1 0  6 1 0  6.25 1 0  6.5 1 0  6.75 1 0  7 1 0  7.25 1 0  7.5 1 0  7.75 1 0  8 1 0  8.25 1 0  8.5 1 0  8.75 1 0  9 1 0  9.25 1 0  9.5 1 0  9.75 1 0  10 1 0  10.25 1 0  10.5 1 0  10.75 1 0  11 1 0  11.25 1 0  11.5 1 0  11.75 1 0  12 1 0  12.25 1 0  12.5 1 0  12.75 1 0  13 1 0  13.25 1 0  13.5 1 0  13.75 1 0  14 1 0  14.25 1 0  14.5 1 0  14.75 1 0  15 1 0  15.25 1 0  15.5 1 0  15.75 1 0  16 1 0  16.25 1 0  16.5 1 0  16.75 1 0  17 1 0  17.25 1 0  17.5 1 0  17.75 1 0  18 1 0  18.25 1 0  18.5 1 0  18.75 1 0  19 1 0  19.25 1 0  19.5 1 0  19.75 1 0  20 1 0  20.25 1 0  20.5 1 0  20.75 1 0  21 1 0  21.25 1 0  21.5 1 0  21.75 1 0  22 1 0  22.25 1 0  22.5 1 0  22.75 1 0  23 1 0  23.25 1 0  23.5 1 0  23.75 1 0  24 1 0  24.25 1 0  24.5 1 0  24.75 1 0  25 1 0  0 1.25 0  0.25 1.25 0  0.5 1.25 0  0.75 1.25 0  1 1.25 0  1.25 1.25 0  1.5 1.25 0  1.75 1.25 0  2 1.25 0  2.25 1.25 0  2.5 1.25 0  2.75 1.25 0  3 1.25 0  3.25 1.25 0  3.5 1.25 0  3.75 1.25 0  4 1.25 0  4.25 1.25 0  4.5 1.25 0  4.75 1.25 0  5 1.25 0  5.25 1.25 0  5.5 1.25 0  5.75 1.25 0  6 1.25 0  6.25 1.25 0  6.5 1.25 0  6.75 1.25 0  7 1.25 0  7.25 1.25 0  7.5 1.25 0  7.75 1.25 0  8 1.25 0  8.25 1.25 0  8.5 1.25 0  8.75 1.25 0  9 1.25 0  9.25 1.25 0  9.5 1.25 0  9.75 1.25 0  10 1.25 0  10.25 1.25 0  10.5 1.25 0  10.75 1.25 0  11 1.25 0  11.25 1.25 0  11.5 1.25 0  11.75 1.25 0  12 1.25 0  12.25 1.25 0  12.5 1.25 0  12.75 1.25 0  13 1.25 0  13.25 1.25 0  13.5 1.25 0  13.75 1.25 0  14 1.25 0  14.25 1.25 0  14.5 1.25 0  14.75 1.25 0  15 1.25 0  15.25 1.25 0  15.5 1.25 0  15.75 1.25 0  16 1.25 0  16.25 1.25 0  16.5 1.25 0  16.75 1.25 0  17 1.25 0  17.25 1.25 0  17.5 1.25 0  17.75 1.25 0  18 1.25 0  18.25 1.25 0  18.5 1.25 0  18.75 1.25 0  19 1.25 0  19.25 1.25 0  19.5 1.25 0  19.75 1.25 0  20 1.25 0  20.25 1.25 0  20.5 1.25 0  20.75 1.25 0  21 1.25 0  21.25 1.25 0  21.5 1.25 0  21.75 1.25 0  22 1.25 0  22.25 1.25 0  22.5 1.25 0  22.75 1.25 0  23 1.25 0  23.25 1.25 0  23.5 1.25 0  23.75 1.25 0  24 1.25 0  24.25 1.25 0  24.5 1.25 0  24.75 1.25 0  25 1.25 0  0 1.5 0  0.25 1.5 0  0.5 1.5 0  0.75 1.5 0  1 1.5 0  1.25 1.5 0  1.5 1.5 0  1.75 1.5 0  2 1.5 0  2.25 1.5 0  2.5 1.5 0  2.75 1.5 0  3 1.5 0  3.25 1.5 0  3.5 1.5 0  3.75 1.5 0  4 1.5 0  4.25 1.5 0  4.5 1.5 0  4.75 1.5 0  5 1.5 0  5.25 1.5 0  5.5 1.5 0  5.75 1.5 0  6 1.5 0  6.25 1.5 0  6.5 1.5 0  6.75 1.5 0  7 1.5 0  7.25 1.5 0  7.5 1.5 0  7.75 1.5 0  8 1.5 0  8.25 1.5 0  8.5 1.5 0  8.75 1.5 0  9 1.5 0  9.25 1.5 0  9.5 1.5 0  9.75 1.5 0  10 1.5 0  10.25 1.5 0  10.5 1.5 0  10.75 1.5 0  11 1.5 0  11.25 1.5 0  11.5 1.5 0  11.75 1.5 0  12 1.5 0  12.25 1.5 0  12.5 1.5 0  12.75 1.5 0  13 1.5 0  13.25 1.5 0  13.5 1.5 0  13.75 1.5 0  14 1.5 0  14.25 1.5 0  14.5 1.5 0  14.75 1.5 0  15 1.5 0  15.25 1.5 0  15.5 1.5 0  15.75 1.5 0  16 1.5 0  16.25 1.5 0  16.5 1.5 0  16.75 1.5 0  17 1.5 0  17.25 1.5 0  17.5 1.5 0  17.75 1.5 0  18 1.5 0  18.25 1.5 0  18.5 1.5 0  18.75 1.5 0  19 1.5 0  19.25 1.5 0  19.5 1.5 0  19.75 1.5 0  20 1.5 0  20.25 1.5 0  20.5 1.5 0  20.75 1.5 0  21 1.5 0  21.25 1.5 0  21.5 1.5 0  21.75 1.5 0  22 1.5 0  22.25 1.5 0  22.5 1.5 0  22.75 1.5 0  23 1.5 0  23.25 1.5 0  23.5 1.5 0  23.75 1.5 0  24 1.5 0  24.25 1.5 0  24.5 1.5 0  24.75 1.5 0  25 1.5 0  0 1.75 0  0.25 1.75 0  0.5 1.75 0  0.75 1.75 0  1 1.75 0  1.25 1.75 0  1.5 1.75 0  1.75 1.75 0  2 1.75 0  2.25 1.75 0  2.5 1.75 0  2.75 1.75 0  3 1.75 0  3.25 1.75 0  3.5 1.75 0  3.75 1.75 0  4 1.75 0  4.25 1.75 0  4.5 1.75 0  4.75 1.75 0  5 1.75 0  5.25 1.75 0  5.5 1.75 0  5.75 1.75 0  6 1.75 0  6.25 1.75 0  6.5 1.75 0  6.75 1.75 0  7 1.75 0  7.25 1.75 0  7.5 1.75 0  7.75 1.75 0  8 1.75 0  8.25 1.75 0  8.5 1.75 0  8.75 1.75 0  9 1.75 0  9.25 1.75 0  9.5 1.75 0  9.75 1.75 0  10 1.75 0  10.25 1.75 0  10.5 1.75 0  10.75 1.75 0  11 1.75 0  11.25 1.75 0  11.5 1.75 0  11.75 1.75 0  12 1.75 0  12.25 1.75 0  12.5 1.75 0  12.75 1.75 0  13 1.75 0  13.25 1.75 0  13.5 1.75 0  13.75 1.75 0  14 1.75 0  14.25 1.75 0  14.5 1.75 0  14.75 1.75 0  15 1.75 0  15.25 1.75 0  15.5 1.75 0  15.75 1.75 0  16 1.75 0  16.25 1.75 0  16.5 1.75 0  16.75 1.75 0  17 1.75 0  17.25 1.75 0  17.5 1.75 0  17.75 1.75 0  18 1.75 0  18.25 1.75 0  18.5 1.75 0  18.75 1.75 0  19 1.75 0  19.25 1.75 0  19.5 1.75 0  19.75 1.75 0  20 1.75 0  20.25 1.75 0  20.5 1.75 0  20.75 1.75 0  21 1.75 0  21.25 1.75 0  21.5 1.75 0  21.75 1.75 0  22 1.75 0  22.25 1.75 0  22.5 1.75 0  22.75 1.75 0  23 1.75 0  23.25 1.75 0  23.5 1.75 0  23.75 1.75 0  24 1.75 0  24.25 1.75 0  24.5 1.75 0  24.75 1.75 0  25 1.75 0  0 2 0  0.25 2 0  0.5 2 0  0.75 2 0  1 2 0  1.25 2 0  1.5 2 0  1.75 2 0  2 2 0  2.25 2 0  2.5 2 0  2.75 2 0  3 2 0  3.25 2 0  3.5 2 0  3.75 2 0  4 2 0  4.25 2 0  4.5 2 0  4.75 2 0  5 2 0  5.25 2 0  5.5 2 0  5.75 2 0  6 2 0  6.25 2 0  6.5 2 0  6.75 2 0  7 2 0  7.25 2 0  7.5 2 0  7.75 2 0  8 2 0  8.25 2 0  8.5 2 0  8.75 2 0  9 2 0  9.25 2 0  9.5 2 0  9.75 2 0  10 2 0  10.25 2 0  10.5 2 0  10.75 2 0  11 2 0  11.25 2 0 
[...]
<PointData  Scalars="f_23"> 
<DataArray  type="Float64"  Name="f_23"  format="ascii">-1.2505938032603070e-01  -1.2247478570005813e-01  -1.1610659091600872e-01  -1.0583943424984406e-01  -9.1741285722289317e-02  -7.3966573929743804e-02  -5.2733362691740539e-02  -2.8316914709085254e-02  -1.0459135980923520e-03  2.8702565588069370e-02  6.0510658194572360e-02  9.3930197695352616e-02  1.2849576603295457e-01  1.6373949186459111e-01  1.9920644076798757e-01  2.3446929365894009e-01  2.6914107588448483e-01  3.0288495785288394e-01  3.3542053738396782e-01  3.6652645095977782e-01  3.9603956348869074e-01  4.2385129248816894e-01  4.4990180218659787e-01  4.7417285621739824e-01  4.9668006739825871e-01  5.1746516409901011e-01  5.3658874047079241e-01  5.5412380179839338e-01  5.7015027656837280e-01  5.8475055422350064e-01  5.9800602510375722e-01  6.0999454476515613e-01  6.2078871400140323e-01  6.3045485283556935e-01  6.3905254610973139e-01  6.4663464553118044e-01  6.5324762462013863e-01  6.5893219641804235e-01  6.6372411735319503e-01  6.6765511325004612e-01  6.7075387449710211e-01  6.7304707656990281e-01  6.7456038938676044e-01  6.7531944447961423e-01  6.7535073295621439e-01  6.7468241009816476e-01  6.7334498466407655e-01  6.7137187309600577e-01  6.6879980142932105e-01  6.6566904131131621e-01  6.6202347156129837e-01  6.5791046338545645e-01  6.5338059566569529e-01  6.4848721633667528e-01  6.4328587609096322e-01  6.3783367056046136e-01  6.3218853556084598e-01  6.2640854573128801e-01  6.2055126882697409e-01  6.1467322517327683e-01  6.0882949394759522e-01  6.0307349514523256e-01  5.9745695903116713e-01  5.9203007486681258e-01  5.8684178947692023e-01  5.8194020583068662e-01  5.7737301439390520e-01  5.7318787759180245e-01  5.6943268201478758e-01  5.6615557521926929e-01  5.6340471470770570e-01  5.6122767576738242e-01  5.5967049136745384e-01  5.5877632952509182e-01  5.5858384898324775e-01  5.5912530961907314e-01  5.6042454626275429e-01  5.6249494001277811e-01  5.6533753645060858e-01  5.6893946287637875e-01  5.7327278543277083e-01  5.7829392184212758e-01  5.8394368816710807e-01  5.9014801181463639e-01  5.9681929251682564e-01  6.0385834356978585e-01  6.1115680256224802e-01  6.1859986882719409e-01  6.2606920713750513e-01  6.3344585509359819e-01  6.4061298451386517e-01  6.4745839232206859e-01  6.5387662977609273e-01  6.5977071508735452e-01  6.6505340693212600e-01  6.6964803497216241e-01  6.7348886484525861e-01  6.7652084076380070e-01  6.7869798213117616e-01  6.7997730108423871e-01  6.8029417681071924e-01  -1.2339136602072563e-01  -1.2120100980283652e-01  -1.1494994011054134e-01  -1.0474391721742915e-01  -9.0700392416428979e-02  -7.2985874235636197e-02  -5.1821538286502350e-02  -2.7483203733165901e-02  -2.9912855459465185e-04  2.9354579711365843e-02  6.1061401144025175e-02  9.4374787172832042e-02  1.2883111245857332e-01  1.6396437072836978e-01  1.9932146379446489e-01  2.3447678912190348e-01  2.6904489657508818e-01  3.0269024008618950e-01  3.3513343537847301e-01  3.6615386848379577e-01  3.9558890002727354e-01  4.2333021566429696e-01  4.4931805285064813e-01  4.7353408817742632e-01  4.9599372048648233e-01  5.1673836715558352e-01  5.3582823970960192e-01  5.5333590967265212e-01  5.6934083644627942e-01  5.8392491671502311e-01  5.9716903258654375e-01  6.0915052141773030e-01  6.1994145937797662e-01  6.2960763765313366e-01  6.3820810943538608e-01  6.4579519294869381e-01  6.5241482722934985e-01  6.5810719070076051e-01  6.6290750605368931e-01  6.6684696749845351e-01  6.6995373747973219e-01  6.7225396914583246e-01  6.7377281818146151e-01  6.7453541315966714e-01  6.7456775759912868e-01  6.7389753980109401e-01  6.7255482875723938e-01  6.7057263650460541e-01  6.6798732981995068e-01  6.6483887762248906e-01  6.6117092531470723e-01  6.5703069377748402e-01  6.5246870883717434e-01  6.4753837642454504e-01  6.4229542871488143e-01  6.3679727635193029e-01  6.3110231028406427e-01  6.2526920256880170e-01  6.1935625760655544e-01  6.1342086278263919e-01  6.0751907998632371e-01  6.0170540703397513e-01  5.9603272133702434e-01  5.9055239847716556e-01  5.8531457739944392e-01  5.8036852373407566e-01  5.7576302544343905e-01  5.7154674259110683e-01  5.6776842726612486e-01  5.6447693180122183e-01  5.6172093399889800e-01  5.5954832698853774e-01  5.5800524765021731e-01  5.5713474952638786e-01  5.5697516132972547e-01  5.5755820746729357e-01  5.5890699897752583e-01  5.6103402838367722e-01  5.6393931698135813e-01  5.6760886550671530e-01  5.7201354762349477e-01  5.7710856033224722e-01  5.8283350798308631e-01  5.8911315038148271e-01  5.9585879510638751e-01  6.0297026494024197e-01  6.1033832859866710e-01  6.1784745136548058e-01  6.2537870498985382e-01  6.3281267460636126e-01  6.4003221377131181e-01  6.4692492437089122e-01  6.5338527210983832e-01  6.5931628562830713e-01  6.6463082280539942e-01  6.6925241656309731e-01  6.7311573194174346e-01  6.7616668962563253e-01  6.7836244908312548e-01  6.7967237337011954e-01  6.8008667848165572e-01  -1.1971223544478643e-01  -1.1763503326796940e-01  -1.1150197517909650e-01  -1.0141754027431522e-01  -8.7513132477389316e-02  -6.9963093892912595e-02  -4.8991742579625269e-02  -2.4875384862640994e-02  2.0589074922601424e-03  3.1437478286456169e-02  6.2847321106837148e-02  9.5846292476899547e-02  1.2997585879453258e-01  1.6477553938035253e-01  1.9979790913063794e-01  2.3462289378827464e-01  2.6887015931725916e-01  3.0220864751415527e-01  3.3436268594403379e-01  3.6511452251141024e-01  3.9430352466606688e-01  4.2182258090991309e-01  4.4761241797072493e-01  4.7165460044664104e-01  4.9396393273514788e-01  5.1458086878916731e-01  5.3356438805700279e-01  5.5098564448836984e-01  5.6692255939542313e-01  5.8145541881321572e-01  5.9466345498585593e-01  6.0662233790904951e-01  6.1740247199502662e-01  6.2706797947725779e-01  6.3567625093711666e-01  6.4327794990909071e-01  6.4991736949399981e-01  6.5563305181828901e-01  6.6045859435138032e-01  6.6442357946884500e-01  6.6755457460323064e-01  6.6987615954422908e-01  6.7141194484631017e-01  6.7218555095541133e-01  6.7222152179627892e-01  6.7154614950786551e-01  6.7018818921579781e-01  6.6817944470223734e-01  6.6555520812183688e-01  6.6235454004328376e-01  6.5862038050383986e-01  6.5439948771860446e-01  6.4974220862004006e-01  6.4470209426047231e-01  6.3933538272389434e-01  6.3370038170786092e-01  6.2785679127889982e-01  6.2186501330561295e-01  6.1578549662056903e-01  6.0967816517271933e-01  6.0360196981378444e-01  5.9761459293465957e-01  5.9177231952568088e-01  5.8613006953533031e-01  5.8074156628161244e-01  5.7565959609494155e-01  5.7093629744508712e-01  5.6662340555790447e-01  5.6277237270687508e-01  5.5943428624339198e-01  5.5665951665206737e-01  5.5449704638264075e-01  5.5299345600825123e-01  5.5219157566398813e-01  5.5212884424803554e-01  5.5283545342683338e-01  5.5433238460248069e-01  5.5662947114308836e-01  5.5972363214594789e-01  5.6359742536064095e-01  5.6821805437355577e-01  5.7353693896011515e-01  5.7948991949771955e-01  5.8599811992048856e-01  5.9296944355196879e-01  6.0030062762940384e-01  6.0787974075819040e-01  6.1558897743747609e-01  6.2330758824248034e-01  6.3091478439733806e-01  6.3829247046385151e-01  6.4532768605343127e-01  6.5191467293227479e-01  6.5795652325108500e-01  6.6336640410180248e-01  6.6806839178675148e-01  6.7199799129992321e-01  6.7510248597780220e-01  6.7734142898516292e-01  6.7868799764163268e-01  6.7913247903593654e-01  -1.1376468760986078e-01  -1.1174354720083647e-01  -1.0572992129319374e-01  -9.5812972888185383e-02  -8.2123501933265383e-02  -6.4837731816615160e-02  -4.4180881251683832e-02  -2.0428503001677423e-02  6.0948030850607763e-03  3.5019536760139774e-02  6.5938446158400679e-02  9.8416568902096144e-02  1.3200369737175610e-01  1.6624843685702506e-01  2.0071275239478456e-01  2.3498578584770941e-01  2.6869579772074859e-01  3.0151933219135157e-01  3.3318706490156247e-01  3.6348619656706732e-01  3.9225962712438500e-01  4.1940242894786350e-01  4.4485630543363075e-01  4.6860277269448702e-01  4.9065575783974102e-01  5.1105419866297186e-01  5.2985508910305867e-01  5.4712726981224635e-01  5.6294613237401359e-01  5.7738929937454875e-01  5.9053326383462657e-01  6.0245091888039615e-01  6.1320987780210601e-01  6.2287147073035887e-01  6.3149030212934798e-01  6.3911425898031315e-01  6.4578486964804449e-01  6.5153792562141333e-01  6.5640429097363373e-01  6.6041083644791931e-01  6.6358144590093326e-01  6.6593805208316015e-01  6.6750166626546992e-01  6.6829337205974870e-01  6.6833525808929695e-01  6.6765126722300883e-01  6.6626794228339037e-01  6.6421504994307889e-01  6.6152606645666745e-01  6.5823851145080292e-01  6.5439411966557715e-01  6.5003884561553615e-01  6.4522270272175009e-01  6.3999944639468132e-01  6.3442611936402016e-01  6.2856248651463131e-01  6.2247039462736298e-01  6.1621309864430851e-01  6.0985459930004371e-01  6.0345903627999331e-01  5.9709017591627378e-01  5.9081102270718133e-01  5.8468357008935268e-01  5.7876868889638655e-01  5.7312613329249584e-01  5.6781462552861484e-01  5.6289196467296276e-01  5.5841509253887067e-01  5.5444004415217996e-01  5.5102171160815627e-01  5.4821335978380337e-01  5.4606585006276054e-01  5.4462655313091612e-01  5.4393796229957447e-01  5.4403605221622553e-01  5.4494846111023187e-01  5.4669260439351319e-01  5.4927384995741579e-01  5.5268389770989512e-01  5.5689950542507283e-01  5.6188168869271193e-01  5.6757549504799532e-01  5.7391041328160886e-01  5.8080143208376300e-01  5.8815071236905903e-01  5.9584979027403739e-01  6.0378218819058804e-01  6.1182628366395408e-01  6.1985827335593735e-01  6.2775507241340633e-01  6.3539700734295490e-01  6.4267019001768111e-01  6.4946849776576498e-01  6.5569512536277041e-01  6.6126371563110276e-01  6.6609911461110494e-01  6.7013783658956583e-01  6.7332836904087434e-01  6.7563149801359534e-01  6.7702083053327744e-01  6.7748329113623251e-01  -1.0539191991584425e-01  -1.0342019932594700e-01  -9.7542328848559651e-02  -8.7838655515893871e-02  -7.4436777418986744e-02  -5.7511960666062817e-02  -3.7288401327536781e-02  -1.4039422947937329e-02  1.1914353990820199e-02  4.0209403955732977e-02  7.0446483636657453e-02  1.0220051919706095e-01  1.3503273245665440e-01  1.6850420172146652e-01  2.0218980454190746e-01  2.3569139266382244e-01  2.6864912679457709e-01  3.0075013355860575e-01  3.3173398825452222e-01  3.6139490548748254e-01  3.8958086703971456e-01  4.1619018110830130e-01  4.4116612356328622e-01  4.6449036006616085e-01  4.8617580680884925e-01  5.0625948625210881e-01  5.2479580272943438e-01  5.4185052645878962e-01  5.5749565097678766e-01  5.7180518795502633e-01  5.8485188794020293e-01  5.9670482448977646e-01  6.0742774870626892e-01  6.1707810665720320e-01  6.2570660907102960e-01  6.3335724714189301e-01  6.4006765721714087e-01  6.4586974835227717e-01  6.5079051864948168e-01  6.5485299791777030e-01  6.5807726484926188e-01  6.6048149620410423e-01  6.6208301323437113e-01  6.6289929670225367e-01  6.6294894643786451e-01  6.6225256463574400e-01  6.6083354431797070e-01  6.5871874600330138e-01  6.5593904709130890e-01  6.5252975029722848e-01  6.4853084012254847e-01  6.4398708018275574e-01  6.3894794943198485e-01  6.3346742189033223e-01  6.2760360209129795e-01  6.2141823654851602e-01  6.1497612927812317e-01  6.0834449583117767e-01  6.0159229437244666e-01  5.9478957317275460e-01  5.8800687080119607e-01  5.8131469804097013e-01  5.7478311932785708e-01  5.6848143707416987e-01  5.6247796585012111e-01  5.5683986671789343e-01  5.5163299697841695e-01  5.4692171918351706e-01  5.4276860730984355e-01  5.3923398892059393e-01  5.3637527079813230e-01  5.3424601199946109e-01  5.3289473178949009e-01  5.3236346877687590e-01  5.3268613932087727e-01  5.3388677474298318e-01  5.3597774452452385e-01  5.3895809294239660e-01  5.4281212634933329e-01  5.4750838528237866e-01  5.5299911882157737e-01  5.5922034875615589e-01  5.6609257048457051e-01  5.7352209006623200e-01  5.8140294747887500e-01  5.8961933042393100e-01  5.9804834617205249e-01  6.0656299508382849e-01  6.1503518100990506e-01  6.2333860117109419e-01  6.3135137973557220e-01  6.3895834190679757e-01  6.4605286468347478e-01  6.5253828211592768e-01  6.5832886297676252e-01  6.6335041446175791e-01  6.6754059481256822e-01  6.7084903683275654e-01  6.7323737888522517e-01  6.7467922449866313e-01  6.7515981040068218e-01  -9.4445813717166566e-02  -9.2529477703604174e-02  -8.6812111575467490e-02  -7.7369778818985477e-02  -6.4327299440193608e-02  -4.7858003856834148e-02  -2.8183818074791627e-02  -5.5745071324855462e-03  1.9654800263958550e-02  4.7148371570640821e-02  7.6517165939024800e-02  1.0734857378590658e-01  1.3921815334763607e-01  1.7170259916391800e-01  2.0439295626854395e-01  2.3690701565244540e-01  2.6889990814715886e-01  3.0007213714242831e-01  3.3017460792833425e-01  3.5901055988134489e-01  3.8643462566518039e-01  4.1234948326355553e-01  4.3670070927984977e-01  4.5947048574533755e-01  4.8067077501372552e-01  5.0033648438557454e-01  5.1851902121473636e-01  5.3528051340955574e-01  5.5068885556610758e-01  5.6481364643882270e-01  5.7772301214964372e-01  5.8948126047953797e-01  6.0014728151964003e-01  6.0977359476151627e-01  6.1840593831813562e-01  6.2608329888985603e-01  6.3283828856047253e-01  6.3869778448023595e-01  6.4368375851659820e-01  6.4781423503318691e-01  6.5110432541983254e-01  6.5356729739325392e-01  6.5521564513498465e-01  6.5606213287841875e-01  6.5612078957027009e-01  6.5540783580350015e-01  6.5394252655876417e-01  6.5174789472102201e-01  6.4885138126971675e-01  6.4528533894371864e-01  6.4108739753231325e-01  6.3630068116465754e-01  6.3097387136882599e-01  6.2516111437557242e-01  6.1892177705212192e-01  6.1232006261709748e-01  6.0542450431505890e-01  5.9830736172656773e-01  5.9104394945263650e-01  5.8371193064016524e-01  5.7639060744769111e-01  5.6916023660900639e-01  5.6210139065792697e-01  5.5529437453618335e-01  5.4881869413233975e-01  5.4275255917350185e-01  5.3717238954761515e-01  5.3215228348383248e-01  5.2776339992634269e-01  5.2407320747263397e-01  5.2114455944027804e-01  5.1903456925712954e-01  5.1779328182245110e-01  5.1746216319264315e-01  5.1807246043873534e-01  5.1964351261667352e-01  5.2218111887901253e-01  5.2567608722084647e-01  5.3010309404916411e-01  5.3541997852146905e-01  5.4156757565797031e-01  5.4847015954140199e-01  5.5603652520354951e-01  5.6416168934065525e-01  5.7272914113912332e-01  5.8161353088796841e-01  5.9068365084155949e-01  5.9980554379219642e-01  6.0884557192988986e-01  6.1767329156658379e-01  6.2616400592662025e-01  6.3420090465886703e-01  6.4167674037880618e-01  6.4849503469581482e-01  6.5457084465832427e-01  6.5983115198290243e-01  6.6421495879913850e-01  6.6767318070949111e-01  6.7016841256556992e-01  6.7167459186973111e-01  6.7217650065303347e-01  -8.0773576708758704e-02  -7.8922176566390043e-02  -7.3393801707482526e-02  -6.4262352800434838e-02  -5.1650515715682396e-02  -3.5729334604504885e-02  -1.6717607560062690e-02  5.1196243480686144e-03  2.9474170226079083e-02  5.5999843570932795e-02  8.4319884120473643e-02  1.1403653624063294e-01  1.4474234695892960e-01  1.7603246318967844e-01  2.0751701828624047e-01  2.3883264052113246e-01  2.6965220182088945e-01  2.9969213516926474e-01  3.2871693975236010e-01  3.5654080788536435e-01  3.8302659299220937e-01  4.0808255362535556e-01  4.3165743531628636e-01  4.5373449057103493e-01  4.7432500308762288e-01  4.9346179848277805e-01  5.1119311464957118e-01  5.2757709075500681e-01  5.4267702923090566e-01  5.5655749805671273e-01  5.6928127411778351e-01  5.8090708176757710e-01  5.9148805119588588e-01  6.0107080526924406e-01  6.0969507764474762e-01  6.1739376611018937e-01  6.2419333084243700e-01  6.3011445578088943e-01  6.3517290126453885e-01  6.3938048653403368e-01  6.4274615096750232e-01  6.4527705249033618e-01  6.4697967009236612e-01  6.4786088452758450e-01  6.4792901689742777e-01  6.4719480888224301e-01  6.4567233096706755e-01  6.4337980631543790e-01  6.4034033830465042e-01  6.3658252956764483e-01  6.3214098016670650e-01  6.2705665273559241e-01  6.2137709350201165e-01  6.1515650036331304e-01  6.0845563278936476e-01  6.0134156321103482e-01  5.9388727542781616e-01  5.8617112190935328e-01  5.7827615795391651e-01  5.7028937566278703e-01  5.6230086374118360e-01  5.5440291951286980e-01  5.4668913677028452e-01  5.3925348710461563e-01  5.3218940359218292e-01  5.2558886510271408e-01  5.1954146847041527e-01  5.1413346610629140e-01  5.0944674023803382e-01  5.0555768360683151e-01  5.0253596145086821e-01  5.0044314156255043e-01  4.9933119778273988e-01  4.9924091610677446e-01  5.0020025922388101e-01  5.0222277156164197e-01  5.0530612903425420e-01  5.0943095194663934e-01  5.1456000266475621e-01  5.2063787960016950e-01  5.2759129522832771e-01  5.3532998959812161e-01  5.4374828532889530e-01  5.5272724025697539e-01  5.6213730548013807e-01  5.7184135545586490e-01  5.8169792810926269e-01  5.9156450001731997e-01  6.0130062588770294e-01  6.1077079165316650e-01  6.1984686343836415e-01  6.2841005590488952e-01  6.3635238792703919e-01  6.4357763626882381e-01  6.5000183476481466e-01  6.5555339429132420e-01  6.6017293518476705e-01  6.6381292665858060e-01  6.6643721541600831e-01  6.6802049950612308e-01  6.6854777899713747e-01  -6.4225072029164304e-02  -6.2449257030368681e-02  -5.7139663601577934e-02  -4.8368890190809227e-02  -3.6257794670486169e-02  -2.0974843642874400e-02  -2.7349614954746732e-03  1.8202625542287767e-02  4.1538051751116314e-02  6.6936342836389481e-02  9.4034948521128148e-02  1.2245313082522617e-01  1.5180277682723031e-01  1.8169996228000526e-01  2.1177643820618369e-01  2.4169017694294156e-01  2.7113420373158426e-01  2.9984313570369020e-01  3.2759711240897393e-01  3.5422308170883887e-01  3.7959365562660946e-01  4.0362393905756855e-01  4.2626684415942018e-01  4.4750743588191289e-01  4.6735682314699306e-01  4.8584603581032265e-01  5.0302023064700430e-01  5.1893346792280259e-01  5.3364420620127861e-01  5.4721158409882631e-01  5.5969249645630026e-01  5.7113942843757382e-01  5.8159898218811568e-01  5.9111101396337817e-01  5.9970829213159871e-01  6.0741658560927470e-01  6.1425509605399464e-01  6.2023715396562029e-01  6.2537110757685488e-01  6.2966134317323186e-01  6.3310938557801621e-01  6.3571503739207580e-01  6.3747752469742069e-01  6.3839662489842397e-01  6.3847375886042734e-01  6.3771303429758952e-01  6.3612223037898652e-01  6.3371371482774386e-01  6.3050528459255240e-01  6.2652091982003688e-01  6.2179143880793475e-01  6.1635503940789915e-01  6.1025771053989208e-01  6.0355349662259028e-01  5.9630459827853355e-01  5.8858129495545652e-01  5.8046167922601233e-01  5.7203119834001004e-01  5.6338200567625518e-01  5.5461213237110329e-01  5.4582449666742661e-01  5.3712577440543119e-01  5.2862515759690654e-01  5.2043302846840256e-01  5.1265957345047142e-01  5.0541335564500467e-01  4.9879985628937690e-01  4.9291998721716934e-01  4.8786856925615185e-01  4.8373276796647641e-01  4.8059047988447673e-01  4.7850867060878727e-01  4.7754168075958764e-01  4.7772953598116785e-01  4.7909632045522843e-01  4.8164869653551612e-01  4.8537467215573460e-01  4.9024272857782547e-01  4.9620142040124088e-01  5.0317954537375942e-01  5.1108695308360530e-01  5.1981602086745660e-01  5.2924377614664198e-01  5.3923459248724848e-01  5.4964333842343660e-01  5.6031881977122755e-01  5.7110733283418025e-01  5.8185614049357981e-01  5.9241669603640978e-01  6.0264746851103479e-01  6.1241626418062101e-01  6.2160198583326776e-01  6.3009581962318084e-01  6.3780188267786986e-01  6.4463740000616587e-01  6.5053250376944427e-01  6.5542976053282254e-01  6.5928353265192496e-01  6.6205926990159736e-01  6.6373281129890571e-01  6.6428976530849393e-01  -4.4667318440197577e-02  -4.2977940135796866e-02  -3.7916868393989174e-02  -2.9555656352150343e-02  -1.8013296654002611e-02  -3.4552513262406256e-03  1.3908218827462919e-02  3.3824799448918162e-02  5.6004306112551971e-02  8.0124553729522666e-02  1.0583896445368086e-01  1.3278572784981466e-01  1.6059808638099590e-01  1.8891512079067199e-01  2.1739229200156054e-01  2.4571098227462271e-01  2.7358637121718554e-01  3.0077316290841410e-01  3.2706891378819924e-0