<?xml version="1.0"?>
<VTKFile type="UnstructuredGrid"  version="0.1"  >
<UnstructuredGrid>
<Piece  NumberOfPoints="10201" NumberOfCells="20000">
<Points>
<DataArray  type="Float64"  NumberOfComponents="3"  format="ascii">0 0 0  0.25 0 0  0.5 0 0  0.75 0 0  1 0 0  1.25 0 0  1.5 0 0  1.75 0 0  2 0 0  2.25 0 0  2.5 0 0  2.75 0 0  3 0 0  3.25 0 0  3.5 0 0  3.75 0 0  4 0 0  4.25 0 0  4.5 0 0  4.75 0 0  5 0 0  5.25 0 0  5.5 0 0  5.75 0 0  6 0 0  6.25 0 0  6.5 0 0  6.75 0 0  7 0 0  7.25 0 0  7.5 0 0  7.75 0 0  8 0 0  8.25 0 0  8.5 0 0  8.75 0 0  9 0 0  9.25 0 0  9.5 0 0  9.75 0 0  10 0 0  10.25 0 0  10.5 0 0  10.75 0 0  11 0 0  11.25 0 0  11.5 0 0  11.75 0 0  12 0 0  12.25 0 0  12.5 0 0  12.75 0 0  13 0 0  13.25 0 0  13.5 0 0  13.75 0 0  14 0 0  14.25 0 0  14.5 0 0  14.75 0 0  15 0 0  15.25 0 0  15.5 0 0  15.75 0 0  16 0 0  16.25 0 0  16.5 0 0  16.75 0 0  17 0 0  17.25 0 0  17.5 0 0  17.75 0 0  18 0 0  18.25 0 0  18.5 0 0  18.75 0 0  19 0 0  19.25 0 0  19.5 0 0  19.75 0 0  20 0 0  20.25 0 0  20.5 0 0  20.75 0 0  21 0 0  21.25 0 0  21.5 0 0  21.75 0 0  22 0 0  22.25 0 0  22.5 0 0  22.75 0 0  23 0 0  23.25 0 0  23.5 0 0  23.75 0 0  24 0 0  24.25 0 0  24.5 0 0  24.75 0 0  25 0 0  0 0.25 0  0.25 0.25 0  0.5 0.25 0  0.75 0.25 0  1 0.25 0  1.25 0.25 0  1.5 0.25 0  1.75 0.25 0  2 0.25 0  2.25 0.25 0  2.5 0.25 0  2.75 0.25 0  3 0.25 0  3.25 0.25 0  3.5 0.25 0  3.75 0.25 0  4 0.25 0  4.25 0.25 0  4.5 0.25 0  4.75 0.25 0  5 0.25 0  5.25 0.25 0  5.5 0.25 0  5.75 0.25 0  6 0.25 0  6.25 0.25 0  6.5 0.25 0  6.75 0.25 0  7 0.25 0  7.25 0.25 0  7.5 0.25 0  7.75 0.25 0  8 0.25 0  8.25 0.25 0  8.5 0.25 0  8.75 0.25 0  9 0.25 0  9.25 0.25 0  9.5 0.25 0  9.75 0.25 0  10 0.25 0  10.25 0.25 0  10.5 0.25 0  10.75 0.25 0  11 0.25 0  11.25 0.25 0  11.5 0.25 0  11.75 0.25 0  12 0.25 0  12.25 0.25 0  12.5 0.25 0  12.75 0.25 0  13 0.25 0  13.25 0.25 0  13.5 0.25 0  13.75 0.25 0  14 0.25 0  14.25 0.25 0  14.5 0.25 0  14.75 0.25 0  15 0.25 0  15.25 0.25 0  15.5 0.25 0  15.75 0.25 0  16 0.25 0  16.25 0.25 0  16.5 0.25 0  16.75 0.25 0  17 0.25 0  17.25 0.25 0  17.5 0.25 0  17.75 0.25 0  18 0.25 0  18.25 0.25 0  18.5 0.25 0  18.75 0.25 0  19 0.25 0  19.25 0.25 0  19.5 0.25 0  19.75 0.25 0  20 0.25 0  20.25 0.25 0  20.5 0.25 0  20.75 0.25 0  21 0.25 0  21.25 0.25 0  21.5 0.25 0  21.75 0.25 0  22 0.25 0  22.25 0.25 0  22.5 0.25 0  22.75 0.25 0  23 0.25 0  23.25 0.25 0  23.5 0.25 0  23.75 0.25 0  24 0.25 0  24.25 0.25 0  24.5 0.25 0  24.75 0.25 0  25 0.25 0  0 0.5 0  0.25 0.5 0  0.5 0.5 0  0.75 0.5 0  1 0.5 0  1.25 0.5 0  1.5 0.5 0  1.75 0.5 0  2 0.5 0  2.25 0.5 0  2.5 0.5 0  2.75 0.5 0  3 0.5 0  3.25 0.5 0  3.5 0.5 0  3.75 0.5 0  4 0.5 0  4.25 0.5 0  4.5 0.5 0  4.75 0.5 0  5 0.5 0  5.25 0.5 0  5.5 0.5 0  5.75 0.5 0  6 0.5 0  6.25 0.5 0  6.5 0.5 0  6.75 0.5 0  7 0.5 0  7.25 0.5 0  7.5 0.5 0  7.75 0.5 0  8 0.5 0  8.25 0.5 0  8.5 0.5 0  8.75 0.5 0  9 0.5 0  9.25 0.5 0  9.5 0.5 0  9.75 0.5 0  10 0.5 0  10.25 0.5 0  10.5 0.5 0  10.75 0.5 0  11 0.5 0  11.25 0.5 0  11.5 0.5 0  11.75 0.5 0  12 0.5 0  12.25 0.5 0  12.5 0.5 0  12.75 0.5 0  13 0.5 0  13.25 0.5 0  13.5 0.5 0  13.75 0.5 0  14 0.5 0  14.25 0.5 0  14.5 0.5 0  14.75 0.5 0  15 0.5 0  15.25 0.5 0  15.5 0.5 0  15.75 0.5 0  16 0.5 0  16.25 0.5 0  16.5 0.5 0  16.75 0.5 0  17 0.5 0  17.25 0.5 0  17.5 0.5 0  17.75 0.5 0  18 0.5 0  18.25 0.5 0  18.5 0.5 0  18.75 0.5 0  19 0.5 0  19.25 0.5 0  19.5 0.5 0  19.75 0.5 0  20 0.5 0  20.25 0.5 0  20.5 0.5 0  20.75 0.5 0  21 0.5 0  21.25 0.5 0  21.5 0.5 0  21.75 0.5 0  22 0.5 0  22.25 0.5 0  22.5 0.5 0  22.75 0.5 0  23 0.5 0  23.25 0.5 0  23.5 0.5 0  23.75 0.5 0  24 0.5 0  24.25 0.5 0  24.5 0.5 0  24.75 0.5 0  25 0.5 0  0 0.75 0  0.25 0.75 0  0.5 0.75 0  0.75 0.75 0  1 0.75 0  1.25 0.75 0  1.5 0.75 0  1.75 0.75 0  2 0.75 0  2.25 0.75 0  2.5 0.75 0  2.75 0.75 0  3 0.75 0  3.25 0.75 0  3.5 0.75 0  3.75 0.75 0  4 0.75 0  4.25 0.75 0  4.5 0.75 0  4.75 0.75 0  5 0.75 0  5.25 0.75 0  5.5 0.75 0  5.75 0.75 0  6 0.75 0  6.25 0.75 0  6.5 0.75 0  6.75 0.75 0  7 0.75 0  7.25 0.75 0  7.5 0.75 0  7.75 0.75 0  8 0.75 0  8.25 0.75 0  8.5 0.75 0  8.75 0.75 0  9 0.75 0  9.25 0.75 0  9.5 0.75 0  9.75 0.75 0  10 0.75 0  10.25 0.75 0  10.5 0.75 0  10.75 0.75 0  11 0.75 0  11.25 0.75 0  11.5 0.75 0  11.75 0.75 0  12 0.75 0  12.25 0.75 0  12.5 0.75 0  12.75 0.75 0  13 0.75 0  13.25 0.75 0  13.5 0.75 0  13.75 0.75 0  14 0.75 0  14.25 0.75 0  14.5 0.75 0  14.75 0.75 0  15 0.75 0  15.25 0.75 0  15.5 0.75 0  15.75 0.75 0  16 0.75 0  16.25 0.75 0  16.5 0.75 0  16.75 0.75 0  17 0.75 0  17.25 0.75 0  17.5 0.75 0  17.75 0.75 0  18 0.75 0  18.25 0.75 0  18.5 0.75 0  18.75 0.75 0  19 0.75 0  19.25 0.75 0  19.5 0.75 0  19.75 0.75 0  20 0.75 0  20.25 0.75 0  20.5 0.75 0  20.75 0.75 0  21 0.75 0  21.25 0.75 0  21.5 0.75 0  21.75 0.75 0  22 0.75 0  22.25 0.75 0  22.5 0.75 0  22.75 0.75 0  23 0.75 0  23.25 0.75 0  23.5 0.75 0  23.75 0.75 0  24 0.75 0  24.25 0.75 0  24.5 0.75 0  24.75 0.75 0  25 0.75 0  0 1 0  0.25 1 0  0.5 1 0  0.75 1 0  1 1 0  1.25 1 0  1.5 1 0  1.75 1 0  2 1 0  2.25 1 0  2.5 1 0  2.75 1 0  3 1 0  3.25 1 0  3.5 1 0  3.75 1 0  4 1 0  4.25 1 0  4.5 1 0  4.75 1 0  5 1 0  5.25 1 0  5.5 1 0  5.75 1 0  6 1 0  6.25 1 0  6.5 1 0  6.75 1 0  7 1 0  7.25 1 0  7.5 1 0  7.75 1 0  8 1 0  8.25 1 0  8.5 1 0  8.75 1 0  9 1 0  9.25 1 0  9.5 1 0  9.75 1 0  10 1 0  10.25 1 0  10.5 1 0  10.75 1 0  11 1 0  11.25 1 0  11.5 1 0  11.75 1 0  12 1 0  12.25 1 0  12.5 1 0  12.75 1 0  13 1 0  13.25 1 0  13.5 1 0  13.75 1 0  14 1 0  14.25 1 0  14.5 1 0  14.75 1 0  15 1 0  15.25 1 0  15.5 1 0  15.75 1 0  16 1 0  16.25 1 0  16.5 1 0  16.75 1 0  17 1 0  17.25 1 0  17.5 1 0  17.75 1 0  18 1 0  18.25 1 0  18.5 1 0  18.75 1 0  19 1 0  19.25 1 0  19.5 1 0  19.75 1 0  20 1 0  20.25 1 0  20.5 1 0  20.75 1 0  21 1 0  21.25 1 0  21.5 1 0  21.75 1 0  22 1 0  22.25 1 0  22.5 1 0  22.75 1 0  23 1 0  23.25 1 0  23.5 1 0  23.75 1 0  24 1 0  24.25 1 0  24.5 1 0  24.75 1 0  25 1 0  0 1.25 0  0.25 1.25 0  0.5 1.25 0  0.75 1.25 0  1 1.25 0  1.25 1.25 0  1.5 1.25 0  1.75 1.25 0  2 1.25 0  2.25 1.25 0  2.5 1.25 0  2.75 1.25 0  3 1.25 0  3.25 1.25 0  3.5 1.25 0  3.75 1.25 0  4 1.25 0  4.25 1.25 0  4.5 1.25 0  4.75 1.25 0  5 1.25 0  5.25 1.25 0  5.5 1.25 0  5.75 1.25 0  6 1.25 0  6.25 1.25 0  6.5 1.25 0  6.75 1.25 0  7 1.25 0  7.25 1.25 0  7.5 1.25 0  7.75 1.25 0  8 1.25 0  8.25 1.25 0  8.5 1.25 0  8.75 1.25 0  9 1.25 0  9.25 1.25 0  9.5 1.25 0  9.75 1.25 0  10 1.25 0  10.25 1.25 0  10.5 1.25 0  10.75 1.25 0  11 1.25 0  11.25 1.25 0  11.5 1.25 0  11.75 1.25 0  12 1.25 0  12.25 1.25 0  12.5 1.25 0  12.75 1.25 0  13 1.25 0  13.25 1.25 0  13.5 1.25 0  13.75 1.25 0  14 1.25 0  14.25 1.25 0  14.5 1.25 0  14.75 1.25 0  15 1.25 0  15.25 1.25 0  15.5 1.25 0  15.75 1.25 0  16 1.25 0  16.25 1.25 0  16.5 1.25 0  16.75 1.25 0  17 1.25 0  17.25 1.25 0  17.5 1.25 0  17.75 1.25 0  18 1.25 0  18.25 1.25 0  18.5 1.25 0  18.75 1.25 0  19 1.25 0  19.25 1.25 0  19.5 1.25 0  19.75 1.25 0  20 1.25 0  20.25 1.25 0  20.5 1.25 0  20.75 1.25 0  21 1.25 0  21.25 1.25 0  21.5 1.25 0  21.75 1.25 0  22 1.25 0  22.25 1.25 0  22.5 1.25 0  22.75 1.25 0  23 1.25 0  23.25 1.25 0  23.5 1.25 0  23.75 1.25 0  24 1.25 0  24.25 1.25 0  24.5 1.25 0  24.75 1.25 0  25 1.25 0  0 1.5 0  0.25 1.5 0  0.5 1.5 0  0.75 1.5 0  1 1.5 0  1.25 1.5 0  1.5 1.5 0  1.75 1.5 0  2 1.5 0  2.25 1.5 0  2.5 1.5 0  2.75 1.5 0  3 1.5 0  3.25 1.5 0  3.5 1.5 0  3.75 1.5 0  4 1.5 0  4.25 1.5 0  4.5 1.5 0  4.75 1.5 0  5 1.5 0  5.25 1.5 0  5.5 1.5 0  5.75 1.5 0  6 1.5 0  6.25 1.5 0  6.5 1.5 0  6.75 1.5 0  7 1.5 0  7.25 1.5 0  7.5 1.5 0  7.75 1.5 0  8 1.5 0  8.25 1.5 0  8.5 1.5 0  8.75 1.5 0  9 1.5 0  9.25 1.5 0  9.5 1.5 0  9.75 1.5 0  10 1.5 0  10.25 1.5 0  10.5 1.5 0  10.75 1.5 0  11 1.5 0  11.25 1.5 0  11.5 1.5 0  11.75 1.5 0  12 1.5 0  12.25 1.5 0  12.5 1.5 0  12.75 1.5 0  13 1.5 0  13.25 1.5 0  13.5 1.5 0  13.75 1.5 0  14 1.5 0  14.25 1.5 0  14.5 1.5 0  14.75 1.5 0  15 1.5 0  15.25 1.5 0  15.5 1.5 0  15.75 1.5 0  16 1.5 0  16.25 1.5 0  16.5 1.5 0  16.75 1.5 0  17 1.5 0  17.25 1.5 0  17.5 1.5 0  17.75 1.5 0  18 1.5 0  18.25 1.5 0  18.5 1.5 0  18.75 1.5 0  19 1.5 0  19.25 1.5 0  19.5 1.5 0  19.75 1.5 0  20 1.5 0  20.25 1.5 0  20.5 1.5 0  20.75 1.5 0  21 1.5 0  21.25 1.5 0  21.5 1.5 0  21.75 1.5 0  22 1.5 0  22.25 1.5 0  22.5 1.5 0  22.75 1.5 0  23 1.5 0  23.25 1.5 0  23.5 1.5 0  23.75 1.5 0  24 1.5 0  24.25 1.5 0  24.5 1.5 0  24.75 1.5 0  25 1.5 0  0 1.75 0  0.25 1.75 0  0.5 1.75 0  0.75 1.75 0  1 1.75 0  1.25 1.75 0  1.5 1.75 0  1.75 1.75 0  2 1.75 0  2.25 1.75 0  2.5 1.75 0  2.75 1.75 0  3 1.75 0  3.25 1.75 0  3.5 1.75 0  3.75 1.75 0  4 1.75 0  4.25 1.75 0  4.5 1.75 0  4.75 1.75 0  5 1.75 0  5.25 1.75 0  5.5 1.75 0  5.75 1.75 0  6 1.75 0  6.25 1.75 0  6.5 1.75 0  6.75 1.75 0  7 1.75 0  7.25 1.75 0  7.5 1.75 0  7.75 1.75 0  8 1.75 0  8.25 1.75 0  8.5 1.75 0  8.75 1.75 0  9 1.75 0  9.25 1.75 0  9.5 1.75 0  9.75 1.75 0  10 1.75 0  10.25 1.75 0  10.5 1.75 0  10.75 1.75 0  11 1.75 0  11.25 1.75 0  11.5 1.75 0  11.75 1.75 0  12 1.75 0  12.25 1.75 0  12.5 1.75 0  12.75 1.75 0  13 1.75 0  13.25 1.75 0  13.5 1.75 0  13.75 1.75 0  14 1.75 0  14.25 1.75 0  14.5 1.75 0  14.75 1.75 0  15 1.75 0  15.25 1.75 0  15.5 1.75 0  15.75 1.75 0  16 1.75 0  16.25 1.75 0  16.5 1.75 0  16.75 1.75 0  17 1.75 0  17.25 1.75 0  17.5 1.75 0  17.75 1.75 0  18 1.75 0  18.25 1.75 0  18.5 1.75 0  18.75 1.75 0  19 1.75 0  19.25 1.75 0  19.5 1.75 0  19.75 1.75 0  20 1.75 0  20.25 1.75 0  20.5 1.75 0  20.75 1.75 0  21 1.75 0  21.25 1.75 0  21.5 1.75 0  21.75 1.75 0  22 1.75 0  22.25 1.75 0  22.5 1.75 0  22.75 1.75 0  23 1.75 0  23.25 1.75 0  23.5 1.75 0  23.75 1.75 0  24 1.75 0  24.25 1.75 0  24.5 1.75 0  24.75 1.75 0  25 1.75 0  0 2 0  0.25 2 0  0.5 2 0  0.75 2 0  1 2 0  1.25 2 0  1.5 2 0  1.75 2 0  2 2 0  2.25 2 0  2.5 2 0  2.75 2 0  3 2 0  3.25 2 0  3.5 2 0  3.75 2 0  4 2 0  4.25 2 0  4.5 2 0  4.75 2 0  5 2 0  5.25 2 0  5.5 2 0  5.75 2 0  6 2 0  6.25 2 0  6.5 2 0  6.75 2 0  7 2 0  7.25 2 0  7.5 2 0  7.75 2 0  8 2 0  8.25 2 0  8.5 2 0  8.75 2 0  9 2 0  9.25 2 0  9.5 2 0  9.75 2 0  10 2 0  10.25 2 0  10.5 2 0  10.75 2 0  11 2 0  11.25 2 0 
[...]
<PointData  Scalars="f_26"> 
<DataArray  type="Float64"  Name="f_26"  format="ascii">9.9948604889971115e-01  9.9948004911933486e-01  9.9946401639669558e-01  9.9943605887046749e-01  9.9939338090290597e-01  9.9933176791967671e-01  9.9924504613765852e-01  9.9912434121315830e-01  9.9895701909495938e-01  9.9872517146294582e-01  9.9840345629518890e-01  9.9795602628268731e-01  9.9733216794936064e-01  9.9646012196105338e-01  9.9523834693846713e-01  9.9352321075032568e-01  9.9111173366826288e-01  9.8771756973649727e-01  9.8293793638765636e-01  9.7620881310502206e-01  9.6674572990186414e-01  9.5346849448220239e-01  9.3491148261847623e-01  9.0912871207611112e-01  8.7361777808675278e-01  8.2531158577140906e-01  7.6072034190507520e-01  6.7633450093522873e-01  5.6938454001763550e-01  4.3893608026540976e-01  2.8704638972340263e-01  1.1941996379650313e-01  -5.5041898122856460e-02  -2.2594891586770932e-01  -3.8377369275373413e-01  -5.2179349450448309e-01  -6.3687155187127942e-01  -7.2906648869755131e-01  -8.0059318994824880e-01  -8.5471354769327468e-01  -8.9489410672599135e-01  -9.2430942858742327e-01  -9.4562582312590937e-01  -9.6096223475788489e-01  -9.7194148305871297e-01  -9.7977540534356744e-01  -9.8535327441866505e-01  -9.8931980499444949e-01  -9.9213851014854393e-01  -9.9414071997314790e-01  -9.9556236258017639e-01  -9.9657101276338933e-01  -9.9728551637464491e-01  -9.9779009794090523e-01  -9.9814443899566208e-01  -9.9839084739592610e-01  -9.9855934288432613e-01  -9.9867125802652468e-01  -9.9874178522457602e-01  -9.9878177734675688e-01  -9.9879902055311187e-01  -9.9879913416924071e-01  -9.9878620707159771e-01  -9.9876324784846071e-01  -9.9873250322397178e-01  -9.9869568315505164e-01  -9.9865411968103590e-01  -9.9860887863302017e-01  -9.9856083770699433e-01  -9.9851074047271915e-01  -9.9845923313433282e-01  -9.9840688892904161e-01  -9.9835422369943938e-01  -9.9830170522782735e-01  -9.9824975825331119e-01  -9.9819876661674223e-01  -9.9814907363297056e-01  -9.9810098153131532e-01  -9.9805475060409121e-01  -9.9801059853981011e-01  -9.9796870027990425e-01  -9.9792918861829871e-01  -9.9789215565842881e-01  -9.9785765515131930e-01  -9.9782570566156514e-01  -9.9779629444657725e-01  -9.9776938188941200e-01  -9.9774490629759560e-01  -9.9772278886957300e-01  -9.9770293863594373e-01  -9.9768525720292811e-01  -9.9766964315864004e-01  -9.9765599604719413e-01  -9.9764421987223473e-01  -9.9763422616826947e-01  -9.9762593680692757e-01  -9.9761928700019875e-01  -9.9761422985865222e-01  -9.9761074715703524e-01  -9.9760888466499154e-01  -9.9760889240690687e-01  9.9948409781432468e-01  9.9947877033381893e-01  9.9946282529917574e-01  9.9943479388762746e-01  9.9939196414022480e-01  9.9933012732650583e-01  9.9924309134682443e-01  9.9912194913551877e-01  9.9895401861154798e-01  9.9872132335218033e-01  9.9839842562698689e-01  9.9794934420376169e-01  9.9732317903582168e-01  9.9644791244610775e-01  9.9522164847020156e-01  9.9350027456217893e-01  9.9108017252232528e-01  9.8767417239533806e-01  9.8287847653666727e-01  9.7612790965728258e-01  9.6663688010811621e-01  9.5332450743003350e-01  9.3472568850403659e-01  9.0889746565016016e-01  8.7334475343667661e-01  8.2501382293629411e-01  7.6043445293325895e-01  6.7611871434359805e-01  5.6930977205887856e-01  4.3906106039219306e-01  2.8738243415304859e-01  1.1990661463158235e-01  -5.4525554999721136e-02  -2.2553514051992263e-01  -3.8354983006515569e-01  -5.2177559942101859e-01  -6.3701753537863803e-01  -7.2930935700201693e-01  -8.0087026464933597e-01  -8.5498082656140384e-01  -8.9512777215228234e-01  -9.2450099995164747e-01  -9.4577611044497023e-01  -9.6107652533483212e-01  -9.7202647989532631e-01  -9.7983759677219229e-01  -9.8539823508362412e-01  -9.8935201600539580e-01  -9.9216142787797656e-01  -9.9415693921325199e-01  -9.9557379604096541e-01  -9.9657905286606352e-01  -9.9729116820857366e-01  -9.9779408297822736e-01  -9.9814727341925535e-01  -9.9839290000737391e-01  -9.9856087729331233e-01  -9.9867246306924595e-01  -9.9874279672557764e-01  -9.9878269359238070e-01  -9.9879991323573403e-01  -9.9880005608912925e-01  -9.9878719752807688e-01  -9.9876433639040452e-01  -9.9873371223948026e-01  -9.9869702964325913e-01  -9.9865561645107981e-01  -9.9861053510544773e-01  -9.9856266044327990e-01  -9.9851273352326653e-01  -9.9846139827011582e-01  -9.9840922580387126e-01  -9.9835672997660574e-01  -9.9830437669504291e-01  -9.9825258894245161e-01  -9.9820174893913349e-01  -9.9815219853644621e-01  -9.9810423868165676e-01  -9.9805812859058063e-01  -9.9801408510235312e-01  -9.9797228255343606e-01  -9.9793285338892723e-01  -9.9789588962493991e-01  -9.9786144518523290e-01  -9.9782953905882987e-01  -9.9780015916416909e-01  -9.9777326676049283e-01  -9.9774880121940490e-01  -9.9772668495877692e-01  -9.9770682834659175e-01  -9.9768913440221885e-01  -9.9767350315481129e-01  -9.9765983556068027e-01  -9.9764803693200066e-01  -9.9763801988815626e-01  -9.9762970691062391e-01  -9.9762303265740493e-01  -9.9761794618602384e-01  -9.9761441251145255e-01  -9.9761240765111270e-01  -9.9761186961711690e-01  9.9948085525844999e-01  9.9947566931870946e-01  9.9945974641481572e-01  9.9943162410528064e-01  9.9938860880822955e-01  9.9932648914315081e-01  9.9923905287895198e-01  9.9911735737231000e-01  9.9894866777068148e-01  9.9871493298298941e-01  9.9839061131504481e-01  9.9793957790019550e-01  9.9731073547944582e-01  9.9643179755737543e-01  9.9520050530915782e-01  9.9347226307221259e-01  9.9104282197063798e-01  9.8762421219006113e-01  9.8281166525431951e-01  9.7603890846820596e-01  9.6651926098545649e-01  9.5317105174674777e-01  9.3452920949930252e-01  9.0865244006867751e-01  8.7304997622376257e-01  8.2467593158485619e-01  7.6007131891588842e-01  6.7576042887584942e-01  5.6899405857742713e-01  4.3882120296372867e-01  2.8723073356607826e-01  1.1982296266742183e-01  -5.4589229347074816e-02  -2.2563353200636149e-01  -3.8371899266876947e-01  -5.2202011766661660e-01  -6.3731541767908795e-01  -7.2962696676047778e-01  -8.0117639259853113e-01  -8.5525417608272603e-01  -8.9535808069410106e-01  -9.2468663016067143e-01  -9.4592072131710636e-01  -9.6118624646530015e-01  -9.7210801844433481e-01  -9.7989718894479871e-01  -9.8544119055647306e-01  -9.8938261504391800e-01  -9.9218299749160332e-01  -9.9417200108464820e-01  -9.9558422783749356e-01  -9.9658623539881108e-01  -9.9729610835494653e-01  -9.9779751115980031e-01  -9.9814971834103683e-01  -9.9839474464604028e-01  -9.9856240013649045e-01  -9.9867386809998815e-01  -9.9874423499217224e-01  -9.9878427857596741e-01  -9.9880173169286035e-01  -9.9880217561771067e-01  -9.9878967177496258e-01  -9.9876720857074375e-01  -9.9873701745515953e-01  -9.9870079635448494e-01  -9.9865986735907641e-01  -9.9861528763527463e-01  -9.9856792696637198e-01  -9.9851852142376873e-01  -9.9846770993324296e-01  -9.9841605858534144e-01  -9.9836407619750278e-01  -9.9831222369476091e-01  -9.9826091921264448e-01  -9.9821054035319579e-01  -9.9816142468160962e-01  -9.9811386929412604e-01  -9.9806813008819595e-01  -9.9802442120408752e-01  -9.9798291497068758e-01  -9.9794374257010909e-01  -9.9790699553237727e-01  -9.9787272808184790e-01  -9.9784096028151970e-01  -9.9781168186107805e-01  -9.9778485657041660e-01  -9.9776042687316757e-01  -9.9773831878432329e-01  -9.9771844666136900e-01  -9.9770071777754843e-01  -9.9768503653620555e-01  -9.9767130822295003e-01  -9.9765944223283043e-01  -9.9764935474483318e-01  -9.9764097082818126e-01  -9.9763422590504236e-01  -9.9762906621712499e-01  -9.9762544704716793e-01  -9.9762332510802010e-01  -9.9762263833806120e-01  9.9947601463415237e-01  9.9947084415797960e-01  9.9945487540013533e-01  9.9942661850843728e-01  9.9938336973142083e-01  9.9932090274332652e-01  9.9923297906297481e-01  9.9911061548181934e-01  9.9894101864592966e-01  9.9870605560076831e-01  9.9838007165441056e-01  9.9792678716181737e-01  9.9729489417215067e-01  9.9641182135861905e-01  9.9517492824016218e-01  9.9343911386005901e-01  9.9099947131875044e-01  9.8756719341779498e-01  9.8273648050187268e-01  9.7593985023543262e-01  9.6638930716204730e-01  9.5300193259972110e-01  9.3431179183413859e-01  9.0837760641768395e-01  8.7271014899860266e-01  8.2426722798068208e-01  7.5959594693820320e-01  6.7522837525911295e-01  5.6842267794517143e-01  4.3823165033394634e-01  2.8664187774426009e-01  1.1924589446553688e-01  -5.5152097609434229e-02  -2.2618362483805166e-01  -3.8425463326426046e-01  -5.2253287757757028e-01  -6.3779188272395548e-01  -7.3005362583611622e-01  -8.0154399838778967e-01  -8.5555958880734195e-01  -8.9560373737762100e-01  -9.2487877916324301e-01  -9.4606748584462752e-01  -9.6129609772723734e-01  -9.7218881363539433e-01  -9.7995569774406399e-01  -9.8548295955601939e-01  -9.8941202864136557e-01  -9.9220343172260439e-01  -9.9418600562146009e-01  -9.9559370094408051e-01  -9.9659257594280481e-01  -9.9730034018941660e-01  -9.9780038095561996e-01  -9.9815177043189074e-01  -9.9839637712548313e-01  -9.9856390623802038e-01  -9.9867546632059989e-01  -9.9874609076249465e-01  -9.9878651966563881e-01  -9.9880445901847781e-01  -9.9880547070238446e-01  -9.9879360178473842e-01  -9.9877182960878375e-01  -9.9874237661347587e-01  -9.9870693289064771e-01  -9.9866681326950024e-01  -9.9862306782774191e-01  -9.9857655918485255e-01  -9.9852801604265362e-01  -9.9847806971159514e-01  -9.9842727845156498e-01  -9.9837614311874712e-01  -9.9832511667187052e-01  -9.9827460942955226e-01  -9.9822499149873900e-01  -9.9817659345154153e-01  -9.9812970607153650e-01  -9.9808457979172427e-01  -9.9804142428538245e-01  -9.9800040853574246e-01  -9.9796166159357880e-01  -9.9792527412990562e-01  -9.9789130080289101e-01  -9.9785976338414040e-01  -9.9783065453062447e-01  -9.9780394204571310e-01  -9.9777957344658619e-01  -9.9775748064552394e-01  -9.9773758455811867e-01  -9.9771979947021150e-01  -9.9770403702419386e-01  -9.9769020971998157e-01  -9.9767823386053089e-01  -9.9766803189723063e-01  -9.9765953413143516e-01  -9.9765267967732385e-01  -9.9764741644744614e-01  -9.9764369968242006e-01  -9.9764148855852874e-01  -9.9764074262118474e-01  9.9946954375455443e-01  9.9946435211240703e-01  9.9944829387834366e-01  9.9941985881504791e-01  9.9937632563577750e-01  9.9931344595086458e-01  9.9922494939124085e-01  9.9910180686604333e-01  9.9893116050235842e-01  9.9869478805371326e-01  9.9836691240439734e-01  9.9791108707863319e-01  9.9727577793968347e-01  9.9638810869804884e-01  9.9514503052602077e-01  9.9340090060670683e-01  9.9095010158068164e-01  9.8750290950544661e-01  9.8265236695077296e-01  9.7582957164588402e-01  9.6624485678156569e-01  9.5281345166092368e-01  9.3406755835630195e-01  9.0806433744733239e-01  8.7231379856991287e-01  8.2377446520424891e-01  7.5899641602509704e-01  6.7451761350668360e-01  5.6760517332566729e-01  4.3732305687961576e-01  2.8566918734133623e-01  1.1824480602565832e-01  -5.6142206385315099e-02  -2.2712553583036194e-01  -3.8511810764383553e-01  -5.2329741406343377e-01  -6.3844734407059134e-01  -7.3059919355325142e-01  -8.0198607516471387e-01  -8.5590928407121825e-01  -8.9587448310645412e-01  -9.2508443035076127e-01  -9.4622103542265734e-01  -9.6140896297708922e-01  -9.7227056275182677e-01  -9.8001406708576777e-01  -9.8552403371420649e-01  -9.8944049084540175e-01  -9.9222282608319157e-01  -9.9419897908381083e-01  -9.9560221069267152e-01  -9.9659805880775210e-01  -9.9730384637961778e-01  -9.9780267699780689e-01  -9.9815341687767267e-01  -9.9839778629956266e-01  -9.9856538458896071e-01  -9.9867724510879119e-01  -9.9874834803411550e-01  -9.9878939578285098e-01  -9.9880806746253181e-01  -9.9880990543140435e-01  -9.9879894209531639e-01  -9.9877814320119718e-01  -9.9874972137639006e-01  -9.9871535778711906e-01  -9.9867635860928661e-01  -9.9863376514135016e-01  -9.9858843086467131e-01  -9.9854107488006927e-01  -9.9849231843178954e-01  -9.9844270932654355e-01  -9.9839273772177184e-01  -9.9834284582131816e-01  -9.9829343335629861e-01  -9.9824486025794523e-01  -9.9819744758698326e-01  -9.9815147752840916e-01  -9.9810719306238749e-01  -9.9806479776207335e-01  -9.9802445603521683e-01  -9.9798629401123928e-01  -9.9795040117547829e-01  -9.9791683276626575e-01  -9.9788561287861677e-01  -9.9785673816142173e-01  -9.9783018195401652e-01  -9.9780589868331404e-01  -9.9778382833403567e-01  -9.9776390081080024e-01  -9.9774604002974132e-01  -9.9773016760578936e-01  -9.9771620603561650e-01  -9.9770408131028820e-01  -9.9769372491950004e-01  -9.9768507522377248e-01  -9.9767807816778875e-01  -9.9767268730090697e-01  -9.9766886314095660e-01  -9.9766657233044642e-01  -9.9766578834319974e-01  9.9946149966006126e-01  9.9945627211803734e-01  9.9944009532035205e-01  9.9941144416032213e-01  9.9936757832212586e-01  9.9930422364789628e-01  9.9921507362661477e-01  9.9909104854049968e-01  9.9891922034885272e-01  9.9868127043389898e-01  9.9835129013189794e-01  9.9789265417195405e-01  9.9725358628754868e-01  9.9636088355398655e-01  9.9511105858606219e-01  9.9335788331186936e-01  9.9089496553874001e-01  9.8743156613759897e-01  9.8255941568799832e-01  9.7570794700457120e-01  9.6608543233738320e-01  9.5260463784035299e-01  9.3379497264809685e-01  9.0771069322342535e-01  8.7185925806542419e-01  8.2319782458028234e-01  7.5827758421735048e-01  6.7364177500714995e-01  5.6656855357976188e-01  4.3613914324490638e-01  2.8437284677742758e-01  1.1689107935765294e-01  -5.7486310369907666e-02  -2.2839419174712622e-01  -3.8625944523451244e-01  -5.2428081074142407e-01  -6.3926365646794214e-01  -7.3125596081259303e-01  -8.0250099912172135e-01  -8.5630444868108402e-01  -8.9617232409034797e-01  -9.2530543523727760e-01  -9.4638272884417807e-01  -9.6152569345535022e-01  -9.7235371912239121e-01  -9.8007248312993744e-01  -9.8556444134772370e-01  -9.8946794957587081e-01  -9.9224109695640639e-01  -9.9421083394374099e-01  -9.9560967917336118e-01  -9.9660262065216698e-01  -9.9730657830620240e-01  -9.9780436312952403e-01  -9.9815463070800470e-01  -9.9839895084997521e-01  -9.9856681610156151e-01  -9.9867918445026982e-01  -9.9875098300972265e-01  -9.9879287677385364e-01  -9.9881251818764893e-01  -9.9881543016476426e-01  -9.9880563032240954e-01  -9.9878607243469852e-01  -9.9875895866409103e-01  -9.9872596030706362e-01  -9.9868837364875751e-01  -9.9864722968590225e-01  -9.9860337097280438e-01  -9.9855750498223261e-01  -9.9851024066464078e-01  -9.9846211299144061e-01  -9.9841359893799619e-01  -9.9836512742794403e-01  -9.9831708510095474e-01  -9.9826981929547409e-01  -9.9822363929605373e-01  -9.9817881663961927e-01  -9.9813558507762645e-01  -9.9809414063229873e-01  -9.9805464205279304e-01  -9.9801721186396475e-01  -9.9798193810272784e-01  -9.9794887675346589e-01  -9.9791805482463170e-01  -9.9788947395425398e-01  -9.9786311439332231e-01  -9.9783893919328359e-01  -9.9781689841680876e-01  -9.9779693319837770e-01  -9.9777897950095140e-01  -9.9776297144408488e-01  -9.9774884411358844e-01  -9.9773653579917276e-01  -9.9772598964049164e-01  -9.9771715469157440e-01  -9.9770998644259123e-01  -9.9770444688491933e-01  -9.9770050431856405e-01  -9.9769813335812130e-01  -9.9769731599320122e-01  9.9945198273792346e-01  9.9944671093670501e-01  9.9943039422590785e-01  9.9940149494098895e-01  9.9935725331673442e-01  9.9929336730976537e-01  9.9920349120717888e-01  9.9907849083492761e-01  9.9890536320998102e-01  9.9866568725492322e-01  9.9833341481925042e-01  9.9787173127325257e-01  9.9722860386567769e-01  9.9633048306834293e-01  9.9507341444313502e-01  9.9331054292950127e-01  9.9083463891216006e-01  9.8735385244313356e-01  9.8245845436485857e-01  9.7557598393319245e-01  9.6591230185209265e-01  9.5237718501386648e-01  9.3349648865243795e-01  9.0732052566321775e-01  8.7135290472314386e-01  8.2254802251775905e-01  7.5745710458262450e-01  6.7262863188330624e-01  5.6535376617640143e-01  4.3473569650833260e-01  2.8282232546410985e-01  1.1526315727113634e-01  -5.9104459708022757e-02  -2.2991609588856693e-01  -3.8761750836501108e-01  -5.2543673375825306e-01  -6.4020851504687415e-01  -7.3200294949457612e-01  -8.0307588592229784e-01  -8.5673744748293024e-01  -8.9649277733723953e-01  -9.2553909851064098e-01  -9.4655085256141136e-01  -9.6164511708757738e-01  -9.7243742561023172e-01  -9.8013029085949877e-01  -9.8560367228736900e-01  -9.8949400731393589e-01  -9.9225793793659256e-01  -9.9422133795787115e-01  -9.9561593374282797e-01  -9.9660613562853506e-01  -9.9730844574084543e-01  -9.9780537513869805e-01  -9.9815536559316309e-01  -9.9839983550035460e-01  -9.9856817083172977e-01  -9.9868125491877158e-01  -9.9875396268782979e-01  -9.9879692253217145e-01  -9.9881776088900642e-01  -9.9882198164633762e-01  -9.9881358777807872e-01  -9.9879552093766932e-01  -9.9876997237420051e-01  -9.9873860276707382e-01  -9.9870269747414986e-01  -9.9866327588171644e-01  -9.9862116806027568e-01  -9.9857706808093338e-01  -9.9853157064778331e-01  -9.9848519580952300e-01  -9.9843840518667459e-01  -9.9839161221829487e-01  -9.9834518827320895e-01  -9.9829946600040576e-01  -9.9825474095143407e-01  -9.9821127225272599e-01  -9.9816928290913653e-01  -9.9812896016250419e-01  -9.9809045619848424e-01  -9.9805388938401285e-01  -9.9801934612272614e-01  -9.9798688333501362e-01  -9.9795653150301500e-01  -9.9792829816934592e-01  -9.9790217174224294e-01  -9.9787812543942800e-01  -9.9785612119787148e-01  -9.9783611338559541e-01  -9.9781805217265152e-01  -9.9780188644867884e-01  -9.9778756621072151e-01  -9.9777504438392184e-01  -9.9776427807655943e-01  -9.9775522930884286e-01  -9.9774786529494619e-01  -9.9774215840920932e-01  -9.9773808604387126e-01  -9.9773563066618720e-01  -9.9773478042764840e-01  9.9944112309054289e-01  9.9943580117604769e-01  9.9941932800470079e-01  9.9939015412772636e-01  9.9934550003003719e-01  9.9928103448369754e-01  9.9919037051626536e-01  9.9906431677444296e-01  9.9888979186598892e-01  9.9864826782067007e-01  9.9831355123094756e-01  9.9784863042432137e-01  9.9720120566262338e-01  9.9629736605061103e-01  9.9503266874896623e-01  9.9325960003947955e-01  9.9077004495056320e-01  9.8727096924791857e-01  9.8235107101927877e-01  9.7543582312948574e-01  9.6572841468807402e-01  9.5213525280635691e-01  9.3317810512320187e-01  9.0690263813511629e-01  8.7080777109646013e-01  8.2184429403783077e-01  7.5656290092139433e-01  6.7151750105853414e-01  5.6401377211765380e-01  4.3318010453528616e-01  2.8109772884003459e-01  1.1344924711015425e-01  -6.0907134344593765e-02  -2.3160758754643104e-01  -3.8912005519621101e-01  -5.2670712513133411e-01  -6.4123805244463361e-01  -7.3280862098723554e-01  -8.0368887788129961e-01  -8.5719348383723015e-01  -8.9682593401569488e-01  -9.2577878207906361e-01  -9.4672091936808012e-01  -9.6176415724365227e-01  -9.7251953938822133e-01  -9.8018597675272057e-01  -9.8564064642237659e-01  -9.8951788881599012e-01  -9.9227279193491369e-01  -9.9423009191056988e-01  -9.9562068996166764e-01  -9.9660840253437755e-01  -9.9730930720857680e-01  -9.9780561349570474e-01  -9.9815555032583159e-01  -9.9840038679394905e-01  -9.9856940474941025e-01  -9.9868341524367832e-01  -9.9875724310963232e-01  -9.9880148186141926e-01  -9.9882373324816776e-01  -9.9882948305053210e-01  -9.9882272013051299e-01  -9.9880637418591578e-01  -9.9878262537443108e-01  -9.9875312326219279e-01  -9.9871914149208119e-01  -9.9868168678968461e-01  -9.9864157546075449e-01  -9.9859948669836074e-01  -9.9855599932730210e-01  -9.9851161672642830e-01  -9.9846678334551420e-01  -9.9842189530211045e-01  -9.9837730688530768e-01  -9.9833333432292837e-01  -9.9829025782684000e-01  -9.9824832267645791e-01  -9.9820773990463652e-01  -9.9816868699403050e-01  -9.9813130886340851e-01  -9.9809571931500785e-01  -9.9806200302190118e-01  -9.9803021805687930e-01  -9.9800039890126224e-01  -9.9797255982371247e-01  -9.9794669848601003e-01  -9.9792279961498043e-01  -9.9790083857689083e-01  -9.9788078470142372e-01  -9.9786260422485151e-01  -9.9784626275364874e-01  -9.9783172718748592e-01  -9.9781896708129492e-01  -9.9780795546732082e-01  -9.9779866919836502e-01  -9.9779108891305535e-01  -9.9778519876433569e-01  -9.9778098609192689e-01  -9.9777844124223558e-