<?xml version="1.0"?>
<VTKFile type="UnstructuredGrid"  version="0.1"  >
<UnstructuredGrid>
<Piece  NumberOfPoints="10201" NumberOfCells="20000">
<Points>
<DataArray  type="Float64"  NumberOfComponents="3"  format="ascii">0 0 0  0.25 0 0  0.5 0 0  0.75 0 0  1 0 0  1.25 0 0  1.5 0 0  1.75 0 0  2 0 0  2.25 0 0  2.5 0 0  2.75 0 0  3 0 0  3.25 0 0  3.5 0 0  3.75 0 0  4 0 0  4.25 0 0  4.5 0 0  4.75 0 0  5 0 0  5.25 0 0  5.5 0 0  5.75 0 0  6 0 0  6.25 0 0  6.5 0 0  6.75 0 0  7 0 0  7.25 0 0  7.5 0 0  7.75 0 0  8 0 0  8.25 0 0  8.5 0 0  8.75 0 0  9 0 0  9.25 0 0  9.5 0 0  9.75 0 0  10 0 0  10.25 0 0  10.5 0 0  10.75 0 0  11 0 0  11.25 0 0  11.5 0 0  11.75 0 0  12 0 0  12.25 0 0  12.5 0 0  12.75 0 0  13 0 0  13.25 0 0  13.5 0 0  13.75 0 0  14 0 0  14.25 0 0  14.5 0 0  14.75 0 0  15 0 0  15.25 0 0  15.5 0 0  15.75 0 0  16 0 0  16.25 0 0  16.5 0 0  16.75 0 0  17 0 0  17.25 0 0  17.5 0 0  17.75 0 0  18 0 0  18.25 0 0  18.5 0 0  18.75 0 0  19 0 0  19.25 0 0  19.5 0 0  19.75 0 0  20 0 0  20.25 0 0  20.5 0 0  20.75 0 0  21 0 0  21.25 0 0  21.5 0 0  21.75 0 0  22 0 0  22.25 0 0  22.5 0 0  22.75 0 0  23 0 0  23.25 0 0  23.5 0 0  23.75 0 0  24 0 0  24.25 0 0  24.5 0 0  24.75 0 0  25 0 0  0 0.25 0  0.25 0.25 0  0.5 0.25 0  0.75 0.25 0  1 0.25 0  1.25 0.25 0  1.5 0.25 0  1.75 0.25 0  2 0.25 0  2.25 0.25 0  2.5 0.25 0  2.75 0.25 0  3 0.25 0  3.25 0.25 0  3.5 0.25 0  3.75 0.25 0  4 0.25 0  4.25 0.25 0  4.5 0.25 0  4.75 0.25 0  5 0.25 0  5.25 0.25 0  5.5 0.25 0  5.75 0.25 0  6 0.25 0  6.25 0.25 0  6.5 0.25 0  6.75 0.25 0  7 0.25 0  7.25 0.25 0  7.5 0.25 0  7.75 0.25 0  8 0.25 0  8.25 0.25 0  8.5 0.25 0  8.75 0.25 0  9 0.25 0  9.25 0.25 0  9.5 0.25 0  9.75 0.25 0  10 0.25 0  10.25 0.25 0  10.5 0.25 0  10.75 0.25 0  11 0.25 0  11.25 0.25 0  11.5 0.25 0  11.75 0.25 0  12 0.25 0  12.25 0.25 0  12.5 0.25 0  12.75 0.25 0  13 0.25 0  13.25 0.25 0  13.5 0.25 0  13.75 0.25 0  14 0.25 0  14.25 0.25 0  14.5 0.25 0  14.75 0.25 0  15 0.25 0  15.25 0.25 0  15.5 0.25 0  15.75 0.25 0  16 0.25 0  16.25 0.25 0  16.5 0.25 0  16.75 0.25 0  17 0.25 0  17.25 0.25 0  17.5 0.25 0  17.75 0.25 0  18 0.25 0  18.25 0.25 0  18.5 0.25 0  18.75 0.25 0  19 0.25 0  19.25 0.25 0  19.5 0.25 0  19.75 0.25 0  20 0.25 0  20.25 0.25 0  20.5 0.25 0  20.75 0.25 0  21 0.25 0  21.25 0.25 0  21.5 0.25 0  21.75 0.25 0  22 0.25 0  22.25 0.25 0  22.5 0.25 0  22.75 0.25 0  23 0.25 0  23.25 0.25 0  23.5 0.25 0  23.75 0.25 0  24 0.25 0  24.25 0.25 0  24.5 0.25 0  24.75 0.25 0  25 0.25 0  0 0.5 0  0.25 0.5 0  0.5 0.5 0  0.75 0.5 0  1 0.5 0  1.25 0.5 0  1.5 0.5 0  1.75 0.5 0  2 0.5 0  2.25 0.5 0  2.5 0.5 0  2.75 0.5 0  3 0.5 0  3.25 0.5 0  3.5 0.5 0  3.75 0.5 0  4 0.5 0  4.25 0.5 0  4.5 0.5 0  4.75 0.5 0  5 0.5 0  5.25 0.5 0  5.5 0.5 0  5.75 0.5 0  6 0.5 0  6.25 0.5 0  6.5 0.5 0  6.75 0.5 0  7 0.5 0  7.25 0.5 0  7.5 0.5 0  7.75 0.5 0  8 0.5 0  8.25 0.5 0  8.5 0.5 0  8.75 0.5 0  9 0.5 0  9.25 0.5 0  9.5 0.5 0  9.75 0.5 0  10 0.5 0  10.25 0.5 0  10.5 0.5 0  10.75 0.5 0  11 0.5 0  11.25 0.5 0  11.5 0.5 0  11.75 0.5 0  12 0.5 0  12.25 0.5 0  12.5 0.5 0  12.75 0.5 0  13 0.5 0  13.25 0.5 0  13.5 0.5 0  13.75 0.5 0  14 0.5 0  14.25 0.5 0  14.5 0.5 0  14.75 0.5 0  15 0.5 0  15.25 0.5 0  15.5 0.5 0  15.75 0.5 0  16 0.5 0  16.25 0.5 0  16.5 0.5 0  16.75 0.5 0  17 0.5 0  17.25 0.5 0  17.5 0.5 0  17.75 0.5 0  18 0.5 0  18.25 0.5 0  18.5 0.5 0  18.75 0.5 0  19 0.5 0  19.25 0.5 0  19.5 0.5 0  19.75 0.5 0  20 0.5 0  20.25 0.5 0  20.5 0.5 0  20.75 0.5 0  21 0.5 0  21.25 0.5 0  21.5 0.5 0  21.75 0.5 0  22 0.5 0  22.25 0.5 0  22.5 0.5 0  22.75 0.5 0  23 0.5 0  23.25 0.5 0  23.5 0.5 0  23.75 0.5 0  24 0.5 0  24.25 0.5 0  24.5 0.5 0  24.75 0.5 0  25 0.5 0  0 0.75 0  0.25 0.75 0  0.5 0.75 0  0.75 0.75 0  1 0.75 0  1.25 0.75 0  1.5 0.75 0  1.75 0.75 0  2 0.75 0  2.25 0.75 0  2.5 0.75 0  2.75 0.75 0  3 0.75 0  3.25 0.75 0  3.5 0.75 0  3.75 0.75 0  4 0.75 0  4.25 0.75 0  4.5 0.75 0  4.75 0.75 0  5 0.75 0  5.25 0.75 0  5.5 0.75 0  5.75 0.75 0  6 0.75 0  6.25 0.75 0  6.5 0.75 0  6.75 0.75 0  7 0.75 0  7.25 0.75 0  7.5 0.75 0  7.75 0.75 0  8 0.75 0  8.25 0.75 0  8.5 0.75 0  8.75 0.75 0  9 0.75 0  9.25 0.75 0  9.5 0.75 0  9.75 0.75 0  10 0.75 0  10.25 0.75 0  10.5 0.75 0  10.75 0.75 0  11 0.75 0  11.25 0.75 0  11.5 0.75 0  11.75 0.75 0  12 0.75 0  12.25 0.75 0  12.5 0.75 0  12.75 0.75 0  13 0.75 0  13.25 0.75 0  13.5 0.75 0  13.75 0.75 0  14 0.75 0  14.25 0.75 0  14.5 0.75 0  14.75 0.75 0  15 0.75 0  15.25 0.75 0  15.5 0.75 0  15.75 0.75 0  16 0.75 0  16.25 0.75 0  16.5 0.75 0  16.75 0.75 0  17 0.75 0  17.25 0.75 0  17.5 0.75 0  17.75 0.75 0  18 0.75 0  18.25 0.75 0  18.5 0.75 0  18.75 0.75 0  19 0.75 0  19.25 0.75 0  19.5 0.75 0  19.75 0.75 0  20 0.75 0  20.25 0.75 0  20.5 0.75 0  20.75 0.75 0  21 0.75 0  21.25 0.75 0  21.5 0.75 0  21.75 0.75 0  22 0.75 0  22.25 0.75 0  22.5 0.75 0  22.75 0.75 0  23 0.75 0  23.25 0.75 0  23.5 0.75 0  23.75 0.75 0  24 0.75 0  24.25 0.75 0  24.5 0.75 0  24.75 0.75 0  25 0.75 0  0 1 0  0.25 1 0  0.5 1 0  0.75 1 0  1 1 0  1.25 1 0  1.5 1 0  1.75 1 0  2 1 0  2.25 1 0  2.5 1 0  2.75 1 0  3 1 0  3.25 1 0  3.5 1 0  3.75 1 0  4 1 0  4.25 1 0  4.5 1 0  4.75 1 0  5 1 0  5.25 1 0  5.5 1 0  5.75 1 0  6 1 0  6.25 1 0  6.5 1 0  6.75 1 0  7 1 0  7.25 1 0  7.5 1 0  7.75 1 0  8 1 0  8.25 1 0  8.5 1 0  8.75 1 0  9 1 0  9.25 1 0  9.5 1 0  9.75 1 0  10 1 0  10.25 1 0  10.5 1 0  10.75 1 0  11 1 0  11.25 1 0  11.5 1 0  11.75 1 0  12 1 0  12.25 1 0  12.5 1 0  12.75 1 0  13 1 0  13.25 1 0  13.5 1 0  13.75 1 0  14 1 0  14.25 1 0  14.5 1 0  14.75 1 0  15 1 0  15.25 1 0  15.5 1 0  15.75 1 0  16 1 0  16.25 1 0  16.5 1 0  16.75 1 0  17 1 0  17.25 1 0  17.5 1 0  17.75 1 0  18 1 0  18.25 1 0  18.5 1 0  18.75 1 0  19 1 0  19.25 1 0  19.5 1 0  19.75 1 0  20 1 0  20.25 1 0  20.5 1 0  20.75 1 0  21 1 0  21.25 1 0  21.5 1 0  21.75 1 0  22 1 0  22.25 1 0  22.5 1 0  22.75 1 0  23 1 0  23.25 1 0  23.5 1 0  23.75 1 0  24 1 0  24.25 1 0  24.5 1 0  24.75 1 0  25 1 0  0 1.25 0  0.25 1.25 0  0.5 1.25 0  0.75 1.25 0  1 1.25 0  1.25 1.25 0  1.5 1.25 0  1.75 1.25 0  2 1.25 0  2.25 1.25 0  2.5 1.25 0  2.75 1.25 0  3 1.25 0  3.25 1.25 0  3.5 1.25 0  3.75 1.25 0  4 1.25 0  4.25 1.25 0  4.5 1.25 0  4.75 1.25 0  5 1.25 0  5.25 1.25 0  5.5 1.25 0  5.75 1.25 0  6 1.25 0  6.25 1.25 0  6.5 1.25 0  6.75 1.25 0  7 1.25 0  7.25 1.25 0  7.5 1.25 0  7.75 1.25 0  8 1.25 0  8.25 1.25 0  8.5 1.25 0  8.75 1.25 0  9 1.25 0  9.25 1.25 0  9.5 1.25 0  9.75 1.25 0  10 1.25 0  10.25 1.25 0  10.5 1.25 0  10.75 1.25 0  11 1.25 0  11.25 1.25 0  11.5 1.25 0  11.75 1.25 0  12 1.25 0  12.25 1.25 0  12.5 1.25 0  12.75 1.25 0  13 1.25 0  13.25 1.25 0  13.5 1.25 0  13.75 1.25 0  14 1.25 0  14.25 1.25 0  14.5 1.25 0  14.75 1.25 0  15 1.25 0  15.25 1.25 0  15.5 1.25 0  15.75 1.25 0  16 1.25 0  16.25 1.25 0  16.5 1.25 0  16.75 1.25 0  17 1.25 0  17.25 1.25 0  17.5 1.25 0  17.75 1.25 0  18 1.25 0  18.25 1.25 0  18.5 1.25 0  18.75 1.25 0  19 1.25 0  19.25 1.25 0  19.5 1.25 0  19.75 1.25 0  20 1.25 0  20.25 1.25 0  20.5 1.25 0  20.75 1.25 0  21 1.25 0  21.25 1.25 0  21.5 1.25 0  21.75 1.25 0  22 1.25 0  22.25 1.25 0  22.5 1.25 0  22.75 1.25 0  23 1.25 0  23.25 1.25 0  23.5 1.25 0  23.75 1.25 0  24 1.25 0  24.25 1.25 0  24.5 1.25 0  24.75 1.25 0  25 1.25 0  0 1.5 0  0.25 1.5 0  0.5 1.5 0  0.75 1.5 0  1 1.5 0  1.25 1.5 0  1.5 1.5 0  1.75 1.5 0  2 1.5 0  2.25 1.5 0  2.5 1.5 0  2.75 1.5 0  3 1.5 0  3.25 1.5 0  3.5 1.5 0  3.75 1.5 0  4 1.5 0  4.25 1.5 0  4.5 1.5 0  4.75 1.5 0  5 1.5 0  5.25 1.5 0  5.5 1.5 0  5.75 1.5 0  6 1.5 0  6.25 1.5 0  6.5 1.5 0  6.75 1.5 0  7 1.5 0  7.25 1.5 0  7.5 1.5 0  7.75 1.5 0  8 1.5 0  8.25 1.5 0  8.5 1.5 0  8.75 1.5 0  9 1.5 0  9.25 1.5 0  9.5 1.5 0  9.75 1.5 0  10 1.5 0  10.25 1.5 0  10.5 1.5 0  10.75 1.5 0  11 1.5 0  11.25 1.5 0  11.5 1.5 0  11.75 1.5 0  12 1.5 0  12.25 1.5 0  12.5 1.5 0  12.75 1.5 0  13 1.5 0  13.25 1.5 0  13.5 1.5 0  13.75 1.5 0  14 1.5 0  14.25 1.5 0  14.5 1.5 0  14.75 1.5 0  15 1.5 0  15.25 1.5 0  15.5 1.5 0  15.75 1.5 0  16 1.5 0  16.25 1.5 0  16.5 1.5 0  16.75 1.5 0  17 1.5 0  17.25 1.5 0  17.5 1.5 0  17.75 1.5 0  18 1.5 0  18.25 1.5 0  18.5 1.5 0  18.75 1.5 0  19 1.5 0  19.25 1.5 0  19.5 1.5 0  19.75 1.5 0  20 1.5 0  20.25 1.5 0  20.5 1.5 0  20.75 1.5 0  21 1.5 0  21.25 1.5 0  21.5 1.5 0  21.75 1.5 0  22 1.5 0  22.25 1.5 0  22.5 1.5 0  22.75 1.5 0  23 1.5 0  23.25 1.5 0  23.5 1.5 0  23.75 1.5 0  24 1.5 0  24.25 1.5 0  24.5 1.5 0  24.75 1.5 0  25 1.5 0  0 1.75 0  0.25 1.75 0  0.5 1.75 0  0.75 1.75 0  1 1.75 0  1.25 1.75 0  1.5 1.75 0  1.75 1.75 0  2 1.75 0  2.25 1.75 0  2.5 1.75 0  2.75 1.75 0  3 1.75 0  3.25 1.75 0  3.5 1.75 0  3.75 1.75 0  4 1.75 0  4.25 1.75 0  4.5 1.75 0  4.75 1.75 0  5 1.75 0  5.25 1.75 0  5.5 1.75 0  5.75 1.75 0  6 1.75 0  6.25 1.75 0  6.5 1.75 0  6.75 1.75 0  7 1.75 0  7.25 1.75 0  7.5 1.75 0  7.75 1.75 0  8 1.75 0  8.25 1.75 0  8.5 1.75 0  8.75 1.75 0  9 1.75 0  9.25 1.75 0  9.5 1.75 0  9.75 1.75 0  10 1.75 0  10.25 1.75 0  10.5 1.75 0  10.75 1.75 0  11 1.75 0  11.25 1.75 0  11.5 1.75 0  11.75 1.75 0  12 1.75 0  12.25 1.75 0  12.5 1.75 0  12.75 1.75 0  13 1.75 0  13.25 1.75 0  13.5 1.75 0  13.75 1.75 0  14 1.75 0  14.25 1.75 0  14.5 1.75 0  14.75 1.75 0  15 1.75 0  15.25 1.75 0  15.5 1.75 0  15.75 1.75 0  16 1.75 0  16.25 1.75 0  16.5 1.75 0  16.75 1.75 0  17 1.75 0  17.25 1.75 0  17.5 1.75 0  17.75 1.75 0  18 1.75 0  18.25 1.75 0  18.5 1.75 0  18.75 1.75 0  19 1.75 0  19.25 1.75 0  19.5 1.75 0  19.75 1.75 0  20 1.75 0  20.25 1.75 0  20.5 1.75 0  20.75 1.75 0  21 1.75 0  21.25 1.75 0  21.5 1.75 0  21.75 1.75 0  22 1.75 0  22.25 1.75 0  22.5 1.75 0  22.75 1.75 0  23 1.75 0  23.25 1.75 0  23.5 1.75 0  23.75 1.75 0  24 1.75 0  24.25 1.75 0  24.5 1.75 0  24.75 1.75 0  25 1.75 0  0 2 0  0.25 2 0  0.5 2 0  0.75 2 0  1 2 0  1.25 2 0  1.5 2 0  1.75 2 0  2 2 0  2.25 2 0  2.5 2 0  2.75 2 0  3 2 0  3.25 2 0  3.5 2 0  3.75 2 0  4 2 0  4.25 2 0  4.5 2 0  4.75 2 0  5 2 0  5.25 2 0  5.5 2 0  5.75 2 0  6 2 0  6.25 2 0  6.5 2 0  6.75 2 0  7 2 0  7.25 2 0  7.5 2 0  7.75 2 0  8 2 0  8.25 2 0  8.5 2 0  8.75 2 0  9 2 0  9.25 2 0  9.5 2 0  9.75 2 0  10 2 0  10.25 2 0  10.5 2 0  10.75 2 0  11 2 0  11.25 2 0 
[...]
<PointData  Scalars="f_26"> 
<DataArray  type="Float64"  Name="f_26"  format="ascii">9.9995433078550566e-01  9.9995094776326410e-01  9.9994158672482636e-01  9.9992486342929965e-01  9.9989858499084938e-01  9.9985937323894136e-01  9.9980220876091286e-01  9.9971978247645310e-01  9.9960155959928776e-01  9.9943243384215152e-01  9.9919080045850317e-01  9.9884580488962749e-01  9.9835342254624759e-01  9.9765088423771486e-01  9.9664876771884148e-01  9.9521981358414813e-01  9.9318317932759848e-01  9.9028241418474228e-01  9.8615494286169170e-01  9.8029037958203469e-01  9.7197479177878132e-01  9.6021861927060259e-01  9.4366837107644863e-01  9.2050832474785116e-01  8.8837108988973645e-01  8.4429831222408813e-01  7.8482575326773918e-01  7.0630138723806279e-01  6.0555011200866105e-01  4.8091594489256340e-01  3.3348884152090741e-01  1.6800825667629971e-01  -7.2232449552930610e-03  -1.8176634056346525e-01  -3.4539604399858020e-01  -4.9033192409103565e-01  -6.1240321816298549e-01  -7.1092432648650083e-01  -7.8772821655472525e-01  -8.4599077548754731e-01  -8.8927413815233380e-01  -9.2092924676786458e-01  -9.4381358763584766e-01  -9.6021810082445547e-01  -9.7190591716011632e-01  -9.8019668495503309e-01  -9.8605928294776024e-01  -9.9019557220696419e-01  -9.9310922558884429e-01  -9.9515930977565870e-01  -9.9660061300602332e-01  -9.9761333610727176e-01  -9.9832463193994925e-01  -9.9882407462118994e-01  -9.9917469225013356e-01  -9.9942079753370172e-01  -9.9959352690478709e-01  -9.9971474940397564e-01  -9.9979982050849703e-01  -9.9985951992526878e-01  -9.9990141401986110e-01  -9.9993081314762267e-01  -9.9995144405279801e-01  -9.9996592199873391e-01  -9.9997608220708933e-01  -9.9998321249569921e-01  -9.9998821655018755e-01  -9.9999172850394558e-01  -9.9999419334343775e-01  -9.9999592332989617e-01  -9.9999713759051068e-01  -9.9999798989932154e-01  -9.9999858817083653e-01  -9.9999900813856857e-01  -9.9999930295324624e-01  -9.9999950991794051e-01  -9.9999965521421896e-01  -9.9999975721862988e-01  -9.9999982883002880e-01  -9.9999987910280663e-01  -9.9999991439305747e-01  -9.9999993916296004e-01  -9.9999995654531215e-01  -9.9999996873974628e-01  -9.9999997729082346e-01  -9.9999998328322648e-01  -9.9999998747877161e-01  -9.9999999041258358e-01  -9.9999999246060922e-01  -9.9999999388701066e-01  -9.9999999487743563e-01  -9.9999999556237251e-01  -9.9999999603354151e-01  -9.9999999635539627e-01  -9.9999999657318672e-01  -9.9999999671860151e-01  -9.9999999681369667e-01  -9.9999999687359065e-01  -9.9999999690820196e-01  -9.9999999692298946e-01  -9.9999999691761388e-01  9.9995385074994481e-01  9.9995078574352725e-01  9.9994145766638642e-01  9.9992469058019151e-01  9.9989833136023476e-01  9.9985900281308793e-01  9.9980167413459753e-01  9.9971901703723909e-01  9.9960046889978516e-01  9.9943088414565795e-01  9.9918860296870105e-01  9.9884269402283710e-01  9.9834902628247590e-01  9.9764468431651954e-01  9.9664004752187818e-01  9.9520759254846247e-01  9.9316613582060453e-01  9.9025880615421991e-01  9.8612255123325998e-01  9.8024652992989858e-01  9.7191656487506795e-01  9.6014345116263178e-01  9.4357536951141008e-01  9.2040075467772076e-01  8.8826047362918881e-01  8.4421013924322641e-01  7.8480540810726906e-01  7.0641627112705618e-01  6.0588104486422190e-01  4.8153152209555378e-01  3.3440579273358162e-01  1.6915818184035358e-01  -5.9908967487188906e-03  -1.8063370458705724e-01  -3.4450603082283371e-01  -4.8974300252038516e-01  -6.1209194924998445e-01  -7.1082033338392481e-01  -7.8775226250453523e-01  -8.4607812331214360e-01  -8.8938171578586311e-01  -9.2103307970705073e-01  -9.4390296365123361e-01  -9.6029010156826966e-01  -9.7196152712712758e-01  -9.8023844109897529e-01  -9.8609003242323678e-01  -9.9021790824718836e-01  -9.9312529220337553e-01  -9.9517078519329427e-01  -9.9660876687895483e-01  -9.9761910769533702e-01  -9.9832870555167441e-01  -9.9882694352375789e-01  -9.9917670931104341e-01  -9.9942221379901797e-01  -9.9959452026088469e-01  -9.9971544551946068e-01  -9.9980030796093977e-01  -9.9985986103952673e-01  -9.9990165258879959e-01  -9.9993097990874236e-01  -9.9995156056084145e-01  -9.9996600335758412e-01  -9.9997613899346749e-01  -9.9998325211183636e-01  -9.9998824417389787e-01  -9.9999174775531030e-01  -9.9999420675227157e-01  -9.9999593266330911e-01  -9.9999714408230389e-01  -9.9999799441055481e-01  -9.9999859130216306e-01  -9.9999901030879301e-01  -9.9999930445423679e-01  -9.9999951095299811e-01  -9.9999965592487561e-01  -9.9999975770335903e-01  -9.9999982915730223e-01  -9.9999987932020395e-01  -9.9999991453361781e-01  -9.9999993924960984e-01  -9.9999995659395002e-01  -9.9999996876139152e-01  -9.9999997729311185e-01  -9.9999998327145112e-01  -9.9999998745660645e-01  -9.9999999038258680e-01  -9.9999999242457238e-01  -9.9999999384620131e-01  -9.9999999483276525e-01  -9.9999999551451257e-01  -9.9999999598300393e-01  -9.9999999630258840e-01  -9.9999999651845028e-01  -9.9999999666224115e-01  -9.9999999675600881e-01  -9.9999999681491736e-01  -9.9999999684911456e-01  -9.9999999686506713e-01  -9.9999999686709906e-01  9.9995369168954396e-01  9.9995070114489326e-01  9.9994140589657410e-01  9.9992463926903485e-01  9.9989826249347813e-01  9.9985890438714231e-01  9.9980153508475378e-01  9.9971882473879659e-01  9.9960020794473636e-01  9.9943053589944819e-01  9.9918814602370620e-01  9.9884210622000025e-01  9.9834828972756506e-01  9.9764379606679876e-01  9.9663904078733245e-01  9.9520657702109594e-01  9.9316537221470125e-01  9.9025884090508653e-01  9.8612445495244805e-01  9.8025231043734695e-01  9.7192986410037596e-01  9.6017068107186998e-01  9.4362747576599892e-01  9.2049576291285662e-01  8.8842675495912538e-01  8.4448973979451381e-01  7.8525564378554713e-01  7.0710623898632741e-01  6.0687881410892452e-01  4.8287990236119388e-01  3.3609197613986069e-01  1.7109297278368832e-01  -3.9651405988809672e-03  -1.7870116958344476e-01  -3.4282107129559714e-01  -4.8839065892624334e-01  -6.1108265841941989e-01  -7.1011166588538566e-01  -7.8727851282000605e-01  -8.4577315812691667e-01  -8.8919073747103938e-01  -9.2091568681125513e-01  -9.4383158214457685e-01  -9.6024687966121869e-01  -9.7193531686295287e-01  -9.8022244567099737e-01  -9.8608016872038728e-01  -9.9021174201740370e-01  -9.9312137489836183e-01  -9.9516825231678629e-01  -9.9660709891533594e-01  -9.9761798920513989e-01  -9.9832794246884027e-01  -9.9882641459683297e-01  -9.9917633747646795e-01  -9.9942194918354854e-01  -9.9959432998887687e-01  -9.9971530752550641e-01  -9.9980020717996054e-01  -9.9985978702315470e-01  -9.9990159798830491e-01  -9.9993093949206402e-01  -9.9995153056407871e-01  -9.9996598104950940e-01  -9.9997612237812961e-01  -9.9998323972228775e-01  -9.9998823492711397e-01  -9.9999174084889264e-01  -9.9999420159012564e-01  -9.9999592880169830e-01  -9.9999714119040994e-01  -9.9999799224147357e-01  -9.9999858967147792e-01  -9.9999900907868744e-01  -9.9999930352168331e-01  -9.9999951024095901e-01  -9.9999965537573909e-01  -9.9999975727403723e-01  -9.9999982881556937e-01  -9.9999987904195897e-01  -9.9999991430083968e-01  -9.9999993904882967e-01  -9.9999995641510986e-01  -9.9999996859699258e-01  -9.9999997713757949e-01  -9.9999998312066063e-01  -9.9999998730753059e-01  -9.9999999023303243e-01  -9.9999999227298475e-01  -9.9999999369151749e-01  -9.9999999467430500e-01  -9.9999999535189621e-01  -9.9999999581609045e-01  -9.9999999613142931e-01  -9.9999999634325443e-01  -9.9999999648335225e-01  -9.9999999657389660e-01  -9.9999999663019490e-01  -9.9999999666260309e-01  -9.9999999667789896e-01  -9.9999999668038542e-01  9.9995368942695129e-01  9.9995072315508693e-01  9.9994145851886118e-01  9.9992472330312476e-01  9.9989838490395277e-01  9.9985908111539001e-01  9.9980179311456585e-01  9.9971920593236885e-01  9.9960077567640759e-01  9.9943138561949374e-01  9.9918942156306856e-01  9.9884402473390410e-01  9.9835117981882515e-01  9.9764815613712321e-01  9.9664562850883620e-01  9.9521654668096660e-01  9.9318048548793847e-01  9.9028178946793277e-01  9.8615935124594767e-01  9.8030542570533152e-01  9.7201071696262820e-01  9.6029359328726027e-01  9.4381368492611373e-01  9.2077605454675671e-01  8.8884424852008515e-01  8.4510181213168656e-01  7.8613296126059884e-01  7.0832580670991185e-01  6.0850788923072485e-01  4.8495039055345190e-01  3.3857176501131536e-01  1.7386892431522705e-01  -1.0763535112715116e-03  -1.7591095049035074e-01  -3.4031312072701830e-01  -4.8627947970478486e-01  -6.0940320019058214e-01  -7.0883607178778041e-01  -7.8634390962998724e-01  -8.4510632969686006e-01  -8.8872365951232457e-01  -9.2059238398165655e-01  -9.4360930912395724e-01  -9.6009452465173262e-01  -9.7183092418020034e-01  -9.8015081653028768e-01  -9.8603089861944582e-01  -9.9017774787474921e-01  -9.9309784305274196e-01  -9.9515190876781034e-01  -9.9659571154599369e-01  -9.9761003122121428e-01  -9.9832236564370169e-01  -9.9882249650881083e-01  -9.9917357837713272e-01  -9.9942000213489790e-01  -9.9959295334362963e-01  -9.9971433246410413e-01  -9.9979951543719858e-01  -9.9985929554241215e-01  -9.9990124830751415e-01  -9.9993069037610116e-01  -9.9995135287391135e-01  -9.9996585415845607e-01  -9.9997603166202786e-01  -9.9998317479750420e-01  -9.9998818841085213e-01  -9.9999170748523447e-01  -9.9999417763278520e-01  -9.9999591157735290e-01  -9.9999712878930214e-01  -9.9999798329787770e-01  -9.9999858320772050e-01  -9.9999900439418621e-01  -9.9999930011391824e-01  -9.9999950774912383e-01  -9.9999965354052289e-01  -9.9999975590889023e-01  -9.9999982778615459e-01  -9.9999987825144521e-01  -9.9999991367936603e-01  -9.9999993854595304e-01  -9.9999995599438696e-01  -9.9999996823209014e-01  -9.9999997680948027e-01  -9.9999998281565505e-01  -9.9999998701577197e-01  -9.9999998994749717e-01  -9.9999999198872291e-01  -9.9999999340511203e-01  -9.9999999438348064e-01  -9.9999999505523574e-01  -9.9999999551282803e-01  -9.9999999582129928e-01  -9.9999999602638046e-01  -9.9999999616016577e-01  -9.9999999624507885e-01  -9.9999999629663694e-01  -9.9999999632536762e-01  -9.9999999633812897e-01  -9.9999999633897219e-01  9.9995379901496639e-01  9.9995084900632469e-01  9.9994162312944102e-01  9.9992494909401786e-01  9.9989870210027743e-01  9.9985953401741023e-01  9.9980244705464105e-01  9.9972015697017613e-01  9.9960216491918907e-01  9.9943342049876682e-01  9.9919240740362825e-01  9.9884841156141857e-01  9.9835763177006120e-01  9.9765765440831111e-01  9.9665962400048869e-01  9.9523718602300260e-01  9.9321094471016813e-01  9.9032676386110818e-01  9.8622576789164573e-01  9.8040346465802497e-01  9.7215524124267771e-01  9.6050607980507741e-01  9.4412468309867970e-01  9.2122801346694261e-01  8.8949415281873812e-01  8.4602235532212655e-01  7.8740998002678042e-01  7.1004878626770740e-01  6.1075062287836535e-01  4.8774209293879628e-01  3.4186609619772745e-01  1.7752660677078308e-01  2.7254023934380604e-03  -1.7221775420360635e-01  -3.3695246681929236e-01  -4.8339883483156987e-01  -6.0705863089156709e-01  -7.0700767103377360e-01  -7.8496538242184144e-01  -8.4409327477067320e-01  -8.8799297627287599e-01  -9.2007223006560823e-01  -9.4324225738205669e-01  -9.5983693262403513e-01  -9.7165071377551548e-01  -9.8002492408713504e-01  -9.8594297786802199e-01  -9.9011631737065808e-01  -9.9305488110524698e-01  -9.9512182645277703e-01  -9.9657461906418598e-01  -9.9759522117228394e-01  -9.9831195214462509e-01  -9.9881516433355111e-01  -9.9916840895779702e-01  -9.9941635294193609e-01  -9.9959037422860397e-01  -9.9971250757254726e-01  -9.9979822281546382e-01  -9.9985837900141272e-01  -9.9990059778985552e-01  -9.9993022823289357e-01  -9.9995102425625715e-01  -9.9996562027911284e-01  -9.9997586506274316e-01  -9.9998305602030890e-01  -9.9998810365370383e-01  -9.9999164694886000e-01  -9.9999413435356321e-01  -9.9999588060242384e-01  -9.9999710659294716e-01  -9.9999796736818647e-01  -9.9999857175358542e-01  -9.9999899613740473e-01  -9.9999929414155542e-01  -9.9999950340858035e-01  -9.9999965036489580e-01  -9.9999975356384052e-01  -9.9999982603205617e-01  -9.9999987691640102e-01  -9.9999991263995891e-01  -9.9999993771350415e-01  -9.9999995530514085e-01  -9.9999996764020049e-01  -9.9999997628199289e-01  -9.9999998232891940e-01  -9.9999998655287103e-01  -9.9999998949640667e-01  -9.9999999154099051e-01  -9.9999999295490960e-01  -9.9999999392692185e-01  -9.9999999458988342e-01  -9.9999999503733739e-01  -9.9999999533515738e-01  -9.9999999552971397e-01  -9.9999999565359821e-01  -9.9999999572962062e-01  -9.9999999577359622e-01  -9.9999999579626386e-01  -9.9999999580458043e-01  -9.9999999580252763e-01  9.9995400559969849e-01  9.9995107379167769e-01  9.9994190045021725e-01  9.9992531829720321e-01  9.9989921462464293e-01  9.9986026175472675e-01  9.9980349310797056e-01  9.9972167064842399e-01  9.9960436336576886e-01  9.9943662023171054e-01  9.9919707045111394e-01  9.9885521300191427e-01  9.9836755860573656e-01  9.9767215020877387e-01  9.9668080017713911e-01  9.9526812956808264e-01  9.9325616439648723e-01  9.9039283257701649e-01  9.8632223726002877e-01  9.8054414600762085e-01  9.7235995530658514e-01  9.6080295601617338e-01  9.4455299841736784e-01  9.2184133201051444e-01  8.9036306329887083e-01  8.4723531036985433e-01  7.8906965532662443e-01  7.1226043548451934e-01  6.1359930440661314e-01  4.9125929096070403e-01  3.4599422911027944e-01  1.8209907847150919e-01  7.4811448121032938e-03  -1.6758099903875259e-01  -3.3270632452494542e-01  -4.7972736869136401e-01  -6.0403860362113015e-01  -7.0462419669714926e-01  -7.8314524032473487e-01  -8.4273806058890710e-01  -8.8700278071888328e-01  -9.1935854793109040e-01  -9.4273278687193296e-01  -9.5947560896580986e-01  -9.7139554696717600e-01  -9.7984519442789431e-01  -9.8581656397575013e-01  -9.9002745712870088e-01  -9.9299242091656093e-01  -9.9507790807331076e-01  -9.9654372018043413e-01  -9.9757346619927112e-01  -9.9829662251647000e-01  -9.9880435294718928e-01  -9.9916077736770126e-01  -9.9941096116315931e-01  -9.9958656157452763e-01  -9.9970980925211583e-01  -9.9979631154627735e-01  -9.9985702411222854e-01  -9.9989963655119463e-01  -9.9992954574135262e-01  -9.9995053930674749e-01  -9.9996527543270186e-01  -9.9997561965717630e-01  -9.9998288124657053e-01  -9.9998797908462389e-01  -9.9999155808927942e-01  -9.9999407090990222e-01  -9.9999583525935598e-01  -9.9999707414785655e-01  -9.9999794411828091e-01  -9.9999855506157753e-01  -9.9999898412350574e-01  -9.9999928546488492e-01  -9.9999949711192671e-01  -9.9999964576438949e-01  -9.9999975017049558e-01  -9.9999982349593819e-01  -9.9999987498687115e-01  -9.9999991113734898e-01  -9.9999993650892416e-01  -9.9999995430607580e-01  -9.9999996678023240e-01  -9.9999997551346154e-01  -9.9999998161767989e-01  -9.9999998587454642e-01  -9.9999998883370778e-01  -9.9999999088179747e-01  -9.9999999229089598e-01  -9.9999999325256672e-01  -9.9999999390175942e-01  -9.9999999433359477e-01  -9.9999999461514755e-01  -9.9999999479371193e-01  -9.9999999490259295e-01  -9.9999999496515390e-01  -9.9999999499762970e-01  -9.9999999501106174e-01  -9.9999999501259240e-01  -9.9999999500627490e-01  9.9995430288293485e-01  9.9995139376653008e-01  9.9994228902819515e-01  9.9992583004910340e-01  9.9989992084846580e-01  9.9986126095958017e-01  9.9980492519063646e-01  9.9972373680471682e-01  9.9960735464410333e-01  9.9944095885023143e-01  9.9920336978697721e-01  9.9886436477398022e-01  9.9838085954175571e-01  9.9769148585848011e-01  9.9670891106748438e-01  9.9530899524404226e-01  9.9331555463920762e-01  9.9047909239387311e-01  9.8644739196173425e-01  9.8072543062973627e-01  9.7262187815631285e-01  9.6117997624043316e-01  9.4509278790697404e-01  9.2260832708659479e-01  8.9144148364143905e-01  8.4872992894298360e-01  7.9110138221452186e-01  7.1495271449308717e-01  6.1705175107584875e-01  4.9550908230160801e-01  3.5097478850224334e-01  1.8761619578675984e-01  1.3228602406924472e-02  -1.6196056361476305e-01  -3.2753774970822541e-01  -4.7523508376318058e-01  -6.0032130975498177e-01  -7.0167123506865814e-01  -7.8087466855817400e-01  -8.4103557403070461e-01  -8.8575014744513025e-01  -9.1844958852302261e-01  -9.4207973742658058e-01  -9.5900968216224891e-01  -9.7106470670636769e-01  -9.7961101366467240e-01  -9.8565112963064949e-01  -9.8991072062395524e-01  -9.9291009191622936e-01  -9.9501985232646217e-01  -9.9650277442566848e-01  -9.9754457744452152e-01  -9.9827623043299829e-01  -9.9878995024988115e-01  -9.9915059852689914e-01  -9.9940376272229792e-01  -9.9958146742987741e-01  -9.9970620180620440e-01  -9.9979375517090674e-01  -9.9985521133340738e-01  -9.9989835020149764e-01  -9.9992863233060691e-01  -9.9994989027547609e-01  -9.9996481394655545e-01  -9.9997529129829166e-01  -9.9998264744729137e-01  -9.9998781249239133e-01  -9.9999143929240630e-01  -9.9999398612304735e-01  -9.9999577468626688e-01  -9.9999703082240876e-01  -9.9999791308353758e-01  -9.9999853278789919e-01  -9.9999896809583200e-01  -9.9999927388982157e-01  -9.9999948870972777e-01  -9.9999963962114202e-01  -9.9999974563301852e-01  -9.9999982009701094e-01  -9.9999987239200905e-01  -9.9999990910689562e-01  -9.9999993487104000e-01  -9.9999995293748123e-01  -9.9999996559247206e-01  -9.9999997444310440e-01  -9.9999998061932183e-01  -9.9999998491581366e-01  -9.9999998789168509e-01  -9.9999998994047323e-01  -9.9999999133933226e-01  -9.9999999228358549e-01  -9.9999999291099584e-01  -9.9999999331881151e-01  -9.9999999357573377e-01  -9.9999999373031223e-01  -9.9999999381682703e-01  -9.9999999385939864e-01  -9.9999999387484273e-01  -9.9999999387463012e-01  -9.9999999386619731e-01  -9.9999999385377114e-01  9.9995468726717274e-01  9.9995180601013223e-01  9.9994278667040193e-01  9.9992648215096336e-01  9.9990081766626471e-01  9.9986252667737141e-01  9.9980673536489761e-01  9.9972634293252183e-01  9.9961111930157553e-01  9.9944640632228698e-01  9.9921125924036502e-01  9.9887579609613275e-01  9.9839742635349338e-01  9.9771549640163926e-01  9.9674370628292830e-01  9.9535940507975229e-01  9.9338854905931473e-01  9.9058470277865907e-01  9.8660000021076488e-01  9.8094554249962795e-01  9.7293850222095024e-01  9.6163369470514104e-01  9.4573948101249650e-01  9.2352321458849684e-01  8.9272255344870077e-01  8.5049881605816824e-01  7.9349837472301166e-01  7.1812132475172030e-01  6.2110869064312058e-01  5.0049998034752052e-01  3.5682619992528347e-01  1.9410675847512390e-01  2.0005088997729001e-02  -1.5531452989175792e-01  -3.2140494861814156e-01  -4.6988433365545645e-01  -5.9587558822450448e-01  -6.9812466962317765e-01  -7.7813590512919883e-01  -8.3897314761396358e-01  -8.8422618512937290e-01  -9.1733912361993042e-01  -9.4127871011275444e-01  -9.5843600139186758e-01  -9.7065590109956057e-01  -9.7932069197830751e-01  -9.8544541646884454e-01  -9.8976516510035517e-01  -9.9280718590896866e-01  -9.9494712714213307e-01  -9.9645138266959621e-01  -9.9750825626060402e-01  -9.9825055310752397e-01  -9.9877179057215226e-01  -9.9913774962132074e-01  -9.9939466683949962e-01  -9.9957502487136074e-01  -9.9970163601579132e-01  -9.9979051756679971e-01  -9.9985291420246092e-01  -9.9989671938547775e-01  -9.9992747386265934e-01  -9.9994906684688445e-01  -9.9996422830082077e-01  -9.9997487450791145e-01  -9.9998235063330143e-01  -9.9998760097244255e-01  -9.9999128844279195e-01  -9.9999387845100474e-01  -9.9999569775737074e-01  -9.9999697579245672e-01  -9.9999787365801895e-01  -9.9999850448408800e-01  -9.9999894771919040e-01  -9.9999925916225962e-01  -9.9999947800553002e-01  -9.9999963177927331e-01  -9.9999973982364609e-01  -9.9999981572653152e-01  -9.9999986903544014e-01  -9.9999990645972270e-01  -9.9999993271490528e-01  -9.9999995111572515e-01  -9.9999996399269098e-01  -9.9999997298470722e-01  -9.9999997924464945e-01  -9.9999998358379805e-01  -9.9999998657331934e-01  -9.9999998861557260e-01  -9.9999998999421402e-01  -9.9999999090940406e-01  -9.9999999150254271e-01  -9.9999999187364530e-01  -9.9999999209354262e-01  -9.9999999221244040e-01  -9.9999999226591541e-01  -9.9999999227910363e-01  -9.9999999226960801e-01  -9.9999999224949321e-01  -9.9999999222661962e-01  