<?xml version="1.0"?>
<VTKFile type="UnstructuredGrid"  version="0.1"  >
<UnstructuredGrid>
<Piece  NumberOfPoints="10201" NumberOfCells="20000">
<Points>
<DataArray  type="Float64"  NumberOfComponents="3"  format="ascii">0 0 0  0.25 0 0  0.5 0 0  0.75 0 0  1 0 0  1.25 0 0  1.5 0 0  1.75 0 0  2 0 0  2.25 0 0  2.5 0 0  2.75 0 0  3 0 0  3.25 0 0  3.5 0 0  3.75 0 0  4 0 0  4.25 0 0  4.5 0 0  4.75 0 0  5 0 0  5.25 0 0  5.5 0 0  5.75 0 0  6 0 0  6.25 0 0  6.5 0 0  6.75 0 0  7 0 0  7.25 0 0  7.5 0 0  7.75 0 0  8 0 0  8.25 0 0  8.5 0 0  8.75 0 0  9 0 0  9.25 0 0  9.5 0 0  9.75 0 0  10 0 0  10.25 0 0  10.5 0 0  10.75 0 0  11 0 0  11.25 0 0  11.5 0 0  11.75 0 0  12 0 0  12.25 0 0  12.5 0 0  12.75 0 0  13 0 0  13.25 0 0  13.5 0 0  13.75 0 0  14 0 0  14.25 0 0  14.5 0 0  14.75 0 0  15 0 0  15.25 0 0  15.5 0 0  15.75 0 0  16 0 0  16.25 0 0  16.5 0 0  16.75 0 0  17 0 0  17.25 0 0  17.5 0 0  17.75 0 0  18 0 0  18.25 0 0  18.5 0 0  18.75 0 0  19 0 0  19.25 0 0  19.5 0 0  19.75 0 0  20 0 0  20.25 0 0  20.5 0 0  20.75 0 0  21 0 0  21.25 0 0  21.5 0 0  21.75 0 0  22 0 0  22.25 0 0  22.5 0 0  22.75 0 0  23 0 0  23.25 0 0  23.5 0 0  23.75 0 0  24 0 0  24.25 0 0  24.5 0 0  24.75 0 0  25 0 0  0 0.25 0  0.25 0.25 0  0.5 0.25 0  0.75 0.25 0  1 0.25 0  1.25 0.25 0  1.5 0.25 0  1.75 0.25 0  2 0.25 0  2.25 0.25 0  2.5 0.25 0  2.75 0.25 0  3 0.25 0  3.25 0.25 0  3.5 0.25 0  3.75 0.25 0  4 0.25 0  4.25 0.25 0  4.5 0.25 0  4.75 0.25 0  5 0.25 0  5.25 0.25 0  5.5 0.25 0  5.75 0.25 0  6 0.25 0  6.25 0.25 0  6.5 0.25 0  6.75 0.25 0  7 0.25 0  7.25 0.25 0  7.5 0.25 0  7.75 0.25 0  8 0.25 0  8.25 0.25 0  8.5 0.25 0  8.75 0.25 0  9 0.25 0  9.25 0.25 0  9.5 0.25 0  9.75 0.25 0  10 0.25 0  10.25 0.25 0  10.5 0.25 0  10.75 0.25 0  11 0.25 0  11.25 0.25 0  11.5 0.25 0  11.75 0.25 0  12 0.25 0  12.25 0.25 0  12.5 0.25 0  12.75 0.25 0  13 0.25 0  13.25 0.25 0  13.5 0.25 0  13.75 0.25 0  14 0.25 0  14.25 0.25 0  14.5 0.25 0  14.75 0.25 0  15 0.25 0  15.25 0.25 0  15.5 0.25 0  15.75 0.25 0  16 0.25 0  16.25 0.25 0  16.5 0.25 0  16.75 0.25 0  17 0.25 0  17.25 0.25 0  17.5 0.25 0  17.75 0.25 0  18 0.25 0  18.25 0.25 0  18.5 0.25 0  18.75 0.25 0  19 0.25 0  19.25 0.25 0  19.5 0.25 0  19.75 0.25 0  20 0.25 0  20.25 0.25 0  20.5 0.25 0  20.75 0.25 0  21 0.25 0  21.25 0.25 0  21.5 0.25 0  21.75 0.25 0  22 0.25 0  22.25 0.25 0  22.5 0.25 0  22.75 0.25 0  23 0.25 0  23.25 0.25 0  23.5 0.25 0  23.75 0.25 0  24 0.25 0  24.25 0.25 0  24.5 0.25 0  24.75 0.25 0  25 0.25 0  0 0.5 0  0.25 0.5 0  0.5 0.5 0  0.75 0.5 0  1 0.5 0  1.25 0.5 0  1.5 0.5 0  1.75 0.5 0  2 0.5 0  2.25 0.5 0  2.5 0.5 0  2.75 0.5 0  3 0.5 0  3.25 0.5 0  3.5 0.5 0  3.75 0.5 0  4 0.5 0  4.25 0.5 0  4.5 0.5 0  4.75 0.5 0  5 0.5 0  5.25 0.5 0  5.5 0.5 0  5.75 0.5 0  6 0.5 0  6.25 0.5 0  6.5 0.5 0  6.75 0.5 0  7 0.5 0  7.25 0.5 0  7.5 0.5 0  7.75 0.5 0  8 0.5 0  8.25 0.5 0  8.5 0.5 0  8.75 0.5 0  9 0.5 0  9.25 0.5 0  9.5 0.5 0  9.75 0.5 0  10 0.5 0  10.25 0.5 0  10.5 0.5 0  10.75 0.5 0  11 0.5 0  11.25 0.5 0  11.5 0.5 0  11.75 0.5 0  12 0.5 0  12.25 0.5 0  12.5 0.5 0  12.75 0.5 0  13 0.5 0  13.25 0.5 0  13.5 0.5 0  13.75 0.5 0  14 0.5 0  14.25 0.5 0  14.5 0.5 0  14.75 0.5 0  15 0.5 0  15.25 0.5 0  15.5 0.5 0  15.75 0.5 0  16 0.5 0  16.25 0.5 0  16.5 0.5 0  16.75 0.5 0  17 0.5 0  17.25 0.5 0  17.5 0.5 0  17.75 0.5 0  18 0.5 0  18.25 0.5 0  18.5 0.5 0  18.75 0.5 0  19 0.5 0  19.25 0.5 0  19.5 0.5 0  19.75 0.5 0  20 0.5 0  20.25 0.5 0  20.5 0.5 0  20.75 0.5 0  21 0.5 0  21.25 0.5 0  21.5 0.5 0  21.75 0.5 0  22 0.5 0  22.25 0.5 0  22.5 0.5 0  22.75 0.5 0  23 0.5 0  23.25 0.5 0  23.5 0.5 0  23.75 0.5 0  24 0.5 0  24.25 0.5 0  24.5 0.5 0  24.75 0.5 0  25 0.5 0  0 0.75 0  0.25 0.75 0  0.5 0.75 0  0.75 0.75 0  1 0.75 0  1.25 0.75 0  1.5 0.75 0  1.75 0.75 0  2 0.75 0  2.25 0.75 0  2.5 0.75 0  2.75 0.75 0  3 0.75 0  3.25 0.75 0  3.5 0.75 0  3.75 0.75 0  4 0.75 0  4.25 0.75 0  4.5 0.75 0  4.75 0.75 0  5 0.75 0  5.25 0.75 0  5.5 0.75 0  5.75 0.75 0  6 0.75 0  6.25 0.75 0  6.5 0.75 0  6.75 0.75 0  7 0.75 0  7.25 0.75 0  7.5 0.75 0  7.75 0.75 0  8 0.75 0  8.25 0.75 0  8.5 0.75 0  8.75 0.75 0  9 0.75 0  9.25 0.75 0  9.5 0.75 0  9.75 0.75 0  10 0.75 0  10.25 0.75 0  10.5 0.75 0  10.75 0.75 0  11 0.75 0  11.25 0.75 0  11.5 0.75 0  11.75 0.75 0  12 0.75 0  12.25 0.75 0  12.5 0.75 0  12.75 0.75 0  13 0.75 0  13.25 0.75 0  13.5 0.75 0  13.75 0.75 0  14 0.75 0  14.25 0.75 0  14.5 0.75 0  14.75 0.75 0  15 0.75 0  15.25 0.75 0  15.5 0.75 0  15.75 0.75 0  16 0.75 0  16.25 0.75 0  16.5 0.75 0  16.75 0.75 0  17 0.75 0  17.25 0.75 0  17.5 0.75 0  17.75 0.75 0  18 0.75 0  18.25 0.75 0  18.5 0.75 0  18.75 0.75 0  19 0.75 0  19.25 0.75 0  19.5 0.75 0  19.75 0.75 0  20 0.75 0  20.25 0.75 0  20.5 0.75 0  20.75 0.75 0  21 0.75 0  21.25 0.75 0  21.5 0.75 0  21.75 0.75 0  22 0.75 0  22.25 0.75 0  22.5 0.75 0  22.75 0.75 0  23 0.75 0  23.25 0.75 0  23.5 0.75 0  23.75 0.75 0  24 0.75 0  24.25 0.75 0  24.5 0.75 0  24.75 0.75 0  25 0.75 0  0 1 0  0.25 1 0  0.5 1 0  0.75 1 0  1 1 0  1.25 1 0  1.5 1 0  1.75 1 0  2 1 0  2.25 1 0  2.5 1 0  2.75 1 0  3 1 0  3.25 1 0  3.5 1 0  3.75 1 0  4 1 0  4.25 1 0  4.5 1 0  4.75 1 0  5 1 0  5.25 1 0  5.5 1 0  5.75 1 0  6 1 0  6.25 1 0  6.5 1 0  6.75 1 0  7 1 0  7.25 1 0  7.5 1 0  7.75 1 0  8 1 0  8.25 1 0  8.5 1 0  8.75 1 0  9 1 0  9.25 1 0  9.5 1 0  9.75 1 0  10 1 0  10.25 1 0  10.5 1 0  10.75 1 0  11 1 0  11.25 1 0  11.5 1 0  11.75 1 0  12 1 0  12.25 1 0  12.5 1 0  12.75 1 0  13 1 0  13.25 1 0  13.5 1 0  13.75 1 0  14 1 0  14.25 1 0  14.5 1 0  14.75 1 0  15 1 0  15.25 1 0  15.5 1 0  15.75 1 0  16 1 0  16.25 1 0  16.5 1 0  16.75 1 0  17 1 0  17.25 1 0  17.5 1 0  17.75 1 0  18 1 0  18.25 1 0  18.5 1 0  18.75 1 0  19 1 0  19.25 1 0  19.5 1 0  19.75 1 0  20 1 0  20.25 1 0  20.5 1 0  20.75 1 0  21 1 0  21.25 1 0  21.5 1 0  21.75 1 0  22 1 0  22.25 1 0  22.5 1 0  22.75 1 0  23 1 0  23.25 1 0  23.5 1 0  23.75 1 0  24 1 0  24.25 1 0  24.5 1 0  24.75 1 0  25 1 0  0 1.25 0  0.25 1.25 0  0.5 1.25 0  0.75 1.25 0  1 1.25 0  1.25 1.25 0  1.5 1.25 0  1.75 1.25 0  2 1.25 0  2.25 1.25 0  2.5 1.25 0  2.75 1.25 0  3 1.25 0  3.25 1.25 0  3.5 1.25 0  3.75 1.25 0  4 1.25 0  4.25 1.25 0  4.5 1.25 0  4.75 1.25 0  5 1.25 0  5.25 1.25 0  5.5 1.25 0  5.75 1.25 0  6 1.25 0  6.25 1.25 0  6.5 1.25 0  6.75 1.25 0  7 1.25 0  7.25 1.25 0  7.5 1.25 0  7.75 1.25 0  8 1.25 0  8.25 1.25 0  8.5 1.25 0  8.75 1.25 0  9 1.25 0  9.25 1.25 0  9.5 1.25 0  9.75 1.25 0  10 1.25 0  10.25 1.25 0  10.5 1.25 0  10.75 1.25 0  11 1.25 0  11.25 1.25 0  11.5 1.25 0  11.75 1.25 0  12 1.25 0  12.25 1.25 0  12.5 1.25 0  12.75 1.25 0  13 1.25 0  13.25 1.25 0  13.5 1.25 0  13.75 1.25 0  14 1.25 0  14.25 1.25 0  14.5 1.25 0  14.75 1.25 0  15 1.25 0  15.25 1.25 0  15.5 1.25 0  15.75 1.25 0  16 1.25 0  16.25 1.25 0  16.5 1.25 0  16.75 1.25 0  17 1.25 0  17.25 1.25 0  17.5 1.25 0  17.75 1.25 0  18 1.25 0  18.25 1.25 0  18.5 1.25 0  18.75 1.25 0  19 1.25 0  19.25 1.25 0  19.5 1.25 0  19.75 1.25 0  20 1.25 0  20.25 1.25 0  20.5 1.25 0  20.75 1.25 0  21 1.25 0  21.25 1.25 0  21.5 1.25 0  21.75 1.25 0  22 1.25 0  22.25 1.25 0  22.5 1.25 0  22.75 1.25 0  23 1.25 0  23.25 1.25 0  23.5 1.25 0  23.75 1.25 0  24 1.25 0  24.25 1.25 0  24.5 1.25 0  24.75 1.25 0  25 1.25 0  0 1.5 0  0.25 1.5 0  0.5 1.5 0  0.75 1.5 0  1 1.5 0  1.25 1.5 0  1.5 1.5 0  1.75 1.5 0  2 1.5 0  2.25 1.5 0  2.5 1.5 0  2.75 1.5 0  3 1.5 0  3.25 1.5 0  3.5 1.5 0  3.75 1.5 0  4 1.5 0  4.25 1.5 0  4.5 1.5 0  4.75 1.5 0  5 1.5 0  5.25 1.5 0  5.5 1.5 0  5.75 1.5 0  6 1.5 0  6.25 1.5 0  6.5 1.5 0  6.75 1.5 0  7 1.5 0  7.25 1.5 0  7.5 1.5 0  7.75 1.5 0  8 1.5 0  8.25 1.5 0  8.5 1.5 0  8.75 1.5 0  9 1.5 0  9.25 1.5 0  9.5 1.5 0  9.75 1.5 0  10 1.5 0  10.25 1.5 0  10.5 1.5 0  10.75 1.5 0  11 1.5 0  11.25 1.5 0  11.5 1.5 0  11.75 1.5 0  12 1.5 0  12.25 1.5 0  12.5 1.5 0  12.75 1.5 0  13 1.5 0  13.25 1.5 0  13.5 1.5 0  13.75 1.5 0  14 1.5 0  14.25 1.5 0  14.5 1.5 0  14.75 1.5 0  15 1.5 0  15.25 1.5 0  15.5 1.5 0  15.75 1.5 0  16 1.5 0  16.25 1.5 0  16.5 1.5 0  16.75 1.5 0  17 1.5 0  17.25 1.5 0  17.5 1.5 0  17.75 1.5 0  18 1.5 0  18.25 1.5 0  18.5 1.5 0  18.75 1.5 0  19 1.5 0  19.25 1.5 0  19.5 1.5 0  19.75 1.5 0  20 1.5 0  20.25 1.5 0  20.5 1.5 0  20.75 1.5 0  21 1.5 0  21.25 1.5 0  21.5 1.5 0  21.75 1.5 0  22 1.5 0  22.25 1.5 0  22.5 1.5 0  22.75 1.5 0  23 1.5 0  23.25 1.5 0  23.5 1.5 0  23.75 1.5 0  24 1.5 0  24.25 1.5 0  24.5 1.5 0  24.75 1.5 0  25 1.5 0  0 1.75 0  0.25 1.75 0  0.5 1.75 0  0.75 1.75 0  1 1.75 0  1.25 1.75 0  1.5 1.75 0  1.75 1.75 0  2 1.75 0  2.25 1.75 0  2.5 1.75 0  2.75 1.75 0  3 1.75 0  3.25 1.75 0  3.5 1.75 0  3.75 1.75 0  4 1.75 0  4.25 1.75 0  4.5 1.75 0  4.75 1.75 0  5 1.75 0  5.25 1.75 0  5.5 1.75 0  5.75 1.75 0  6 1.75 0  6.25 1.75 0  6.5 1.75 0  6.75 1.75 0  7 1.75 0  7.25 1.75 0  7.5 1.75 0  7.75 1.75 0  8 1.75 0  8.25 1.75 0  8.5 1.75 0  8.75 1.75 0  9 1.75 0  9.25 1.75 0  9.5 1.75 0  9.75 1.75 0  10 1.75 0  10.25 1.75 0  10.5 1.75 0  10.75 1.75 0  11 1.75 0  11.25 1.75 0  11.5 1.75 0  11.75 1.75 0  12 1.75 0  12.25 1.75 0  12.5 1.75 0  12.75 1.75 0  13 1.75 0  13.25 1.75 0  13.5 1.75 0  13.75 1.75 0  14 1.75 0  14.25 1.75 0  14.5 1.75 0  14.75 1.75 0  15 1.75 0  15.25 1.75 0  15.5 1.75 0  15.75 1.75 0  16 1.75 0  16.25 1.75 0  16.5 1.75 0  16.75 1.75 0  17 1.75 0  17.25 1.75 0  17.5 1.75 0  17.75 1.75 0  18 1.75 0  18.25 1.75 0  18.5 1.75 0  18.75 1.75 0  19 1.75 0  19.25 1.75 0  19.5 1.75 0  19.75 1.75 0  20 1.75 0  20.25 1.75 0  20.5 1.75 0  20.75 1.75 0  21 1.75 0  21.25 1.75 0  21.5 1.75 0  21.75 1.75 0  22 1.75 0  22.25 1.75 0  22.5 1.75 0  22.75 1.75 0  23 1.75 0  23.25 1.75 0  23.5 1.75 0  23.75 1.75 0  24 1.75 0  24.25 1.75 0  24.5 1.75 0  24.75 1.75 0  25 1.75 0  0 2 0  0.25 2 0  0.5 2 0  0.75 2 0  1 2 0  1.25 2 0  1.5 2 0  1.75 2 0  2 2 0  2.25 2 0  2.5 2 0  2.75 2 0  3 2 0  3.25 2 0  3.5 2 0  3.75 2 0  4 2 0  4.25 2 0  4.5 2 0  4.75 2 0  5 2 0  5.25 2 0  5.5 2 0  5.75 2 0  6 2 0  6.25 2 0  6.5 2 0  6.75 2 0  7 2 0  7.25 2 0  7.5 2 0  7.75 2 0  8 2 0  8.25 2 0  8.5 2 0  8.75 2 0  9 2 0  9.25 2 0  9.5 2 0  9.75 2 0  10 2 0  10.25 2 0  10.5 2 0  10.75 2 0  11 2 0  11.25 2 0 
[...]
<PointData  Scalars="f_26"> 
<DataArray  type="Float64"  Name="f_26"  format="ascii">1.6704306739128011e-01  1.6670248081152347e-01  1.6616728656440627e-01  1.6538245078361352e-01  1.6434907916148969e-01  1.6308655640495479e-01  1.6162081607721435e-01  1.5997849020244870e-01  1.5818252731826998e-01  1.5624839045075214e-01  1.5418079529129339e-01  1.5197116278794187e-01  1.4959599651362168e-01  1.4701636535577103e-01  1.4417860882982650e-01  1.4101629954409112e-01  1.3745340480401810e-01  1.3340849597721527e-01  1.2879976843597610e-01  1.2355056398448387e-01  1.1759503738006206e-01  1.1088358265963207e-01  1.0338763535305699e-01  9.5103493517825904e-02  8.6054852763905509e-02  7.6293825860800815e-02  6.5900312816623313e-02  5.4979697780769325e-02  4.3658968286397072e-02  3.2081471843269212e-02  2.0400634734064407e-02  8.7730573719428592e-03  -2.6485402268926848e-03  -1.3722028044675252e-02  -2.4321756496609490e-02  -3.4343215215805911e-02  -4.3706145511951143e-02  -5.2355916810835915e-02  -6.0263118187016795e-02  -6.7421460244825329e-02  -7.3844217671028528e-02  -7.9559557361473923e-02  -8.4605181409304106e-02  -8.9022761064080955e-02  -9.2852642627510737e-02  -9.6129268324117043e-02  -9.8877677689646684e-02  -1.0111134527930207e-01  -1.0283147946476991e-01  -1.0402776826116039e-01  -1.0468042596005885e-01  -1.0476328242433852e-01  -1.0424757616976527e-01  -1.0310606976385493e-01  -1.0131710382280129e-01  -9.8868241431613310e-02  -9.5759221473598236e-02  -9.2004027446462064e-02  -8.7631976543769377e-02  -8.2687830560903910e-02  -7.7231015107410012e-02  -7.1334098420694061e-02  -6.5080720522648183e-02  -5.8563175758087969e-02  -5.1879838685294291e-02  -4.5132589861716865e-02  -3.8424351731472468e-02  -3.1856794314970578e-02  -2.5528224389192201e-02  -1.9531637568739598e-02  -1.3952894876268964e-02  -8.8689856074174803e-03  -4.3463549288413018e-03  -4.3930336305363424e-04  2.8115000385395871e-03  5.3803153073556393e-03  7.2573380898709773e-03  8.4492994643986536e-03  8.9795454821838452e-03  8.8875018944318211e-03  8.2274643988890107e-03  7.0667023742058289e-03  5.4829197497765570e-03  3.5611745242719772e-03  1.3904121008252348e-03  -9.4018918662206494e-04  -3.3448345589722197e-03  -5.7444575928122642e-03  -8.0695728688064145e-03  -1.0262449575051114e-02  -1.2278470004388435e-02  -1.4086600000376108e-02  -1.5668967634100417e-02  -1.7019615171171835e-02  -1.8142551547928078e-02  -1.9049282965188902e-02  -1.9756034010424490e-02  -2.0280888229764465e-02  -2.0641071903213817e-02  -2.0850565559131538e-02  -2.0918093798848465e-02  1.6585885336776507e-01  1.6566287491932100e-01  1.6517060070151574e-01  1.6440725688788818e-01  1.6339187124324125e-01  1.6214809264519378e-01  1.6070285480982419e-01  1.5908291594632401e-01  1.5731109130379609e-01  1.5540263682871597e-01  1.5336205581830770e-01  1.5118058141069862e-01  1.4883456731556899e-01  1.4628497441480362e-01  1.4347807339689642e-01  1.4034739962779746e-01  1.3681690364583449e-01  1.3280514727647436e-01  1.2823030955992443e-01  1.2301569573119663e-01  1.1709539209236203e-01  1.1041968356670380e-01  1.0295985090405962e-01  9.4711991131455356e-02  8.5699556804321314e-02  7.5974384706022136e-02  6.5616079547715075e-02  5.4729728240297926e-02  4.3442039024164714e-02  3.1896118840650564e-02  2.0245211902466878e-02  8.6458118457062357e-03  -2.7493808142111604e-03  -1.3798162582272682e-02  -2.4374718935424568e-02  -3.4374292143209410e-02  -4.3716309915077974e-02  -5.2345784187275486e-02  -6.0232929624902072e-02  -6.7371095134997200e-02  -7.3773236477365056e-02  -7.9467272530786476e-02  -8.4490752240388739e-02  -8.8885306381052603e-02  -9.2691363614802180e-02  -9.5943573046343919e-02  -9.8667298743361012e-02  -1.0087644272360263e-01  -1.0257272257520193e-01  -1.0374639157803849e-01  -1.0437825732418353e-01  -1.0444274294598925e-01  -1.0391165410714100e-01  -1.0275827188808404e-01  -1.0096138888469362e-01  -9.8508940771992695e-02  -9.5400951668445144e-02  -9.1651599252920726e-02  -8.7290303463603169e-02  -8.2361839238394949e-02  -7.6925558703922800e-02  -7.1053873212910290e-02  -6.4830185372710070e-02  -5.8346473867244376e-02  -5.1700721175405896e-02  -4.4994341180775742e-02  -3.8329717551839629e-02  -3.1807913357934446e-02  -2.5526566330974582e-02  -1.9577949741165973e-02  -1.4047160783729298e-02  -9.0103982975200045e-03  -4.5333079771258293e-03  -6.6940169587560684e-04  2.5414080006277641e-03  5.0740835904693965e-03  6.9194475714841764e-03  8.0847621321753233e-03  8.5937909348884345e-03  8.4862494056673968e-03  7.8165846738615808e-03  6.6520737510923147e-03  5.0702839667414162e-03  3.1559972397445959e-03  9.9775309347326720e-04  -1.3157917894422182e-03  -3.6994625193957770e-03  -6.0748907890166076e-03  -8.3733461372954964e-03  -1.0537887873399741e-02  -1.2524702553715556e-02  -1.4303554828857236e-02  -1.5857348474340609e-02  -1.7180862962015882e-02  -1.8278792893792306e-02  -1.9163267929269864e-02  -1.9851065919786085e-02  -2.0360750085322590e-02  -2.0709963229682916e-02  -2.0913106498477853e-02  -2.0979657586269140e-02  1.6283200732298353e-01  1.6268144636638601e-01  1.6223386181008809e-01  1.6151399808385788e-01  1.6054572312246626e-01  1.5935511527046381e-01  1.5796978070443890e-01  1.5641627398402047e-01  1.5471680933599649e-01  1.5288588483914678e-01  1.5092721755182703e-01  1.4883130035087719e-01  1.4657383665912832e-01  1.4411525037963702e-01  1.4140139560734089e-01  1.3836550503817382e-01  1.3493132289853377e-01  1.3101727503160723e-01  1.2654144326705805e-01  1.2142704045287535e-01  1.1560803217881611e-01  1.0903452504941752e-01  1.0167754125466524e-01  9.3532825360687258e-02  8.4623380595060388e-02  7.5000506227186348e-02  6.4743201634188757e-02  5.3955911633781842e-02  4.2764705304205050e-02  3.1312098591692580e-02  1.9750839747709938e-02  8.2370655475140515e-03  -3.0767045171889969e-03  -1.4048246892874044e-02  -2.4551515505696245e-02  -3.4481316158956166e-02  -4.3756459452398075e-02  -5.2321200691689045e-02  -6.0144914000411796e-02  -6.7220090213940251e-02  -7.3558881852173991e-02  -7.9188532242133236e-02  -8.4146110084628231e-02  -8.8473018122663991e-02  -9.2209750672946511e-02  -9.5391338730037939e-02  -9.8043846195392498e-02  -1.0018217360079106e-01  -1.0180929714967148e-01  -1.0291693419394309e-01  -1.0348749560605941e-01  -1.0349707431461237e-01  -1.0291913844162109e-01  -1.0172855402459847e-01  -9.9905558604236042e-02  -9.7439340695154225e-02  -9.4330944918044404e-02  -9.0595308917009537e-02  -8.6262334994158724e-02  -8.1376995261799492e-02  -7.5998553656278570e-02  -7.0199053103077419e-02  -6.4061256128887190e-02  -5.7676240369044326e-02  -5.1140838342856161e-02  -4.4555078409178966e-02  -3.8019738274519384e-02  -3.1634072438159244e-02  -2.5493729131818351e-02  -1.9688837882737419e-02  -1.4302230568268223e-02  -9.4077583956124391e-03  -5.0686831001286797e-03  -1.3361485562385287e-03  1.7522271487494454e-03  4.1735661266694294e-03  5.9206528254963824e-03  7.0024518595843618e-03  7.4441119123951740e-03  7.2863652298333871e-03  6.5842669338317637e-03  5.4052655327867221e-03  3.8266508514325716e-03  1.9324823200058308e-03  -1.8984715668114382e-04  -2.4532147825140865e-03  -4.7743158907641017e-03  -7.0769266103750533e-03  -9.2946653528021422e-03  -1.1373071146815789e-02  -1.3270867492097167e-02  -1.4960342923689246e-02  -1.6426847814429359e-02  -1.7667474667792740e-02  -1.8689050260633586e-02  -1.9505617531492769e-02  -2.0135619622503570e-02  -2.0599016273121128e-02  -2.0914563990104277e-02  -2.1097477614273913e-02  -2.1157659388486433e-02  1.5799906035925665e-01  1.5787301870948983e-01  1.5746993641763229e-01  1.5680853155504998e-01  1.5591173925380281e-01  1.5480545273301163e-01  1.5351672607908828e-01  1.5207112902571265e-01  1.5048961103872593e-01  1.4878528275362299e-01  1.4696047520419867e-01  1.4500438782384048e-01  1.4289158583426509e-01  1.4058154746946694e-01  1.3801938779029535e-01  1.3513780020719091e-01  1.3186016433401621e-01  1.2810467641445161e-01  1.2378927379604859e-01  1.1883705470915154e-01  1.1318184450190333e-01  1.0677353324647286e-01  9.9582809154456511e-02  9.1604937757240823e-02  8.2862287225615658e-02  7.3405373329384363e-02  6.3312290085928327e-02  5.2686499506851503e-02  4.1653069770209501e-02  3.0353567567682455e-02  1.8939917711652605e-02  7.5676310429385182e-03  -3.6111394102925683e-03  -1.4454231695755021e-02  -2.4835333396756892e-02  -3.4648659240640776e-02  -4.3812135290475007e-02  -5.2268897498647660e-02  -5.9987048676096763e-02  -6.6957758040615753e-02  -7.3191919376198733e-02  -7.8715696333513885e-02  -8.3565367050368614e-02  -8.7781927844010052e-02  -9.1405922846469201e-02  -9.4472932169913273e-02  -9.7010078410330242e-02  -9.9033806880200886e-02  -1.0054906927718621e-01  -1.0154990643202390e-01  -1.0202129724251716e-01  -1.0194203107445847e-01  -1.0128828055757519e-01  -1.0003750783092785e-01  -9.8172332390501632e-02  -9.5684020662042804e-02  -9.2575320122739127e-02  -8.8862445070831977e-02  -8.4576116122977871e-02  -7.9761649990083949e-02  -7.4478179765353994e-02  -6.8797150603745902e-02  -6.2800275890028928e-02  -5.6577152764979571e-02  -5.0222724691418322e-02  -4.3834747283561147e-02  -3.7511369048881929e-02  -3.1348889504564249e-02  -2.5439711843756235e-02  -1.9870473123226495e-02  -1.4720316580002717e-02  -1.0059269841408116e-02  -5.9467079871221417e-03  -2.4299074634699957e-03  4.5727027696390360e-04  2.6954945735718043e-03  4.2807852651952525e-03  5.2249284260222966e-03  5.5553833890451499e-03  5.3145958949234245e-03  4.5586669678215662e-03  3.3553738522468994e-03  1.7815932735750497e-03  -7.9767389793030492e-05  -2.1431749168814127e-03  -4.3240151439278085e-03  -6.5420579475047556e-03  -8.7246172049089479e-03  -1.0809195810449496e-02  -1.2745440303686703e-02  -1.4496280295108190e-02  -1.6038189786879126e-02  -1.7360574734699062e-02  -1.8464357521166052e-02  -1.9359888578632915e-02  -2.0064363407698453e-02  -2.0598956297040866e-02  -2.0985898295114359e-02  -2.1245725803882381e-02  -2.1394907195341369e-02  -2.1444015337945831e-02  1.5150556847113197e-01  1.5140031353081795e-01  1.5104534975305772e-01  1.5045541347291913e-01  1.4965114270989260e-01  1.4865676803625166e-01  1.4749768009278028e-01  1.4619760094230394e-01  1.4477547878148417e-01  1.4324237163052933e-01  1.4159861884678199e-01  1.3983158733180803e-01  1.3791424350313811e-01  1.3580474760330105e-01  1.3344719602756769e-01  1.3077355373671012e-01  1.2770672812003414e-01  1.2416464489047971e-01  1.2006510313246657e-01  1.1533111732263553e-01  1.0989640451194553e-01  1.0371064863829006e-01  9.6744173033099581e-02  8.8991676851757004e-02  8.0474740323541627e-02  7.1242875211979792e-02  6.1372987451932641e-02  5.0967224050235425e-02  4.0149289881734426e-02  2.9059434127904713e-02  1.7848411455561267e-02  6.6708095964667343e-03  -4.3218066651655156e-03  -1.4987462300924834e-02  -2.5199593533842584e-02  -3.4851723788167276e-02  -4.3860684372290973e-02  -5.2168187175016520e-02  -5.9740689534905807e-02  -6.6567628413274821e-02  -7.2658230263044646e-02  -7.8037213639620004e-02  -8.2739784346612083e-02  -8.6806370639313027e-02  -9.0277554382202571e-02  -9.3189622061231422e-02  -9.5571089919896879e-02  -9.7440456785841206e-02  -9.8805316374620020e-02  -9.9662830458720389e-02  -1.0000143876784592e-01  -9.9803573688501929e-02  -9.9049068316787309e-02  -9.7718902155133736e-02  -9.5798922353309293e-02  -9.3283208045729815e-02  -9.0176805248189842e-02  -8.6497641178338608e-02  -8.2277519238992000e-02  -7.7562188310549673e-02  -7.2410562328979161e-02  -6.6893230187151542e-02  -6.1090436357165032e-02  -5.5089727149016339e-02  -4.8983447505005828e-02  -4.2866243164246552e-02  -3.6832679864007983e-02  -3.0975043289646273e-02  -2.5381339106223307e-02  -2.0133478686926026e-02  -1.5305617808962701e-02  -1.0962614306211286e-02  -7.1585850161558504e-03  -3.9355682259226334e-03  -1.3223292897865042e-03  6.6662247357245964e-04  2.0317143357969133e-03  2.7885859501646901e-03  2.9678624383005048e-03  2.6143471211549918e-03  1.7855911506038573e-03  5.4984349522850713e-04  -1.0165625988247556e-03  -2.8322771683502103e-03  -4.8142975672879782e-03  -6.8814343972195503e-03  -8.9576633742883775e-03  -1.0975144450164186e-02  -1.2876706432339374e-02  -1.4617630745452055e-02  -1.6166618631391894e-02  -1.7505887187539964e-02  -1.8630405400195206e-02  -1.9546345704772369e-02  -2.0268884003646386e-02  -2.0819526910961693e-02  -2.1223176036718819e-02  -2.1505153574557404e-02  -2.1688410783591214e-02  -2.1791121500313405e-02  -2.1824827740575255e-02  1.4356456562045683e-01  1.4348017711499042e-01  1.4317853883259901e-01  1.4267183361052801e-01  1.4197822832825871e-01  1.4111955661784489e-01  1.4011872897563921e-01  1.3899684874667764e-01  1.3777015400979511e-01  1.3644700294824952e-01  1.3502516257206812e-01  1.3348966342358060e-01  1.3181145729253740e-01  1.2994706678152332e-01  1.2783934893352863e-01  1.2541941483022540e-01  1.2260965916638075e-01  1.1932776539057059e-01  1.1549147042758458e-01  1.1102380502782426e-01  1.0585847688463201e-01  9.9945037556021465e-02  9.3253472843130514e-02  8.5777879904195761e-02  7.7538941980286977e-02  6.8584981041904178e-02  5.8991456737347236e-02  4.8858882296156869e-02  3.8309238560857911e-02  2.7481078483020678e-02  1.6523617207090814e-02  5.5901875965795652e-03  -5.1685013969919175e-03  -1.5610842906696192e-02  -2.5610101243763436e-02  -3.5059079334045298e-02  -4.3873378731224280e-02  -5.1993059241053165e-02  -5.9382633774530916e-02  -6.6029467021810187e-02  -7.1940772454404542e-02  -7.7139510417082696e-02  -8.1659571591573513e-02  -8.5540677942866267e-02  -8.8823443107384492e-02  -9.1545004968299468e-02  -9.3735577409028950e-02  -9.5416172156094700e-02  -9.6597624743494773e-02  -9.7280932882854526e-02  -9.7458793882316694e-02  -9.7118122638841925e-02  -9.6243253419232608e-02  -9.4819484038928897e-02  -9.2836612902442370e-02  -9.0292146170897675e-02  -8.7193908724892563e-02  -8.3561870308206457e-02  -7.9429087206562249e-02  -7.4841749458848181e-02  -6.9858404045348432e-02  -6.4548487658125597e-02  -5.8990343072500742e-02  -5.3268908530172923e-02  -4.7473261009732447e-02  -4.1694166025501855e-02  -3.6021745335550470e-02  -3.0543327715012839e-02  -2.5341504913466130e-02  -2.0492381999339612e-02  -1.6063993133717258e-02  -1.2114852090293478e-02  -8.6926201648204610e-03  -5.8328984821613911e-03  -3.5581813223441419e-03  -1.8770354686792367e-03  -7.8359165721893437e-04  -2.5744322875563672e-04  -2.6404124669944095e-04  -7.5565405954260969e-04  -1.6729241435428032e-03  -2.9470095267112176e-03  -4.5022460395675425e-03  -6.2592157469196488e-03  -8.1380620393832846e-03  -1.0061858357388357e-02  -1.1959819618662673e-02  -1.3770145724748783e-02  -1.5442305670901409e-02  -1.6938607360376300e-02  -1.8234948935824967e-02  -1.9320707542414110e-02  -2.0197785335417905e-02  -2.0878894476579979e-02  -2.1385217543964864e-02  -2.1743622920134473e-02  -2.1983643351596440e-02  -2.2134438439795526e-02  -2.2221958129179202e-02  -2.2266505326112376e-02  -2.2280864025836296e-02  1.3443877947568550e-01  1.3437597191113901e-01  1.3413275769772182e-01  1.3371937598243294e-01  1.3315150708239196e-01  1.3244816420040448e-01  1.3162917863522419e-01  1.3071238846867606e-01  1.2971068716951348e-01  1.2862914125050767e-01  1.2746241702824668e-01  1.2619276073477997e-01  1.2478875522668202e-01  1.2320503310536580e-01  1.2138306376319073e-01  1.1925305547465057e-01  1.1673692924679654e-01  1.1375223574612001e-01  1.1021680747255262e-01  1.0605387211860257e-01  1.0119730513342608e-01  9.5596673628190562e-02  8.9221721853102107e-02  8.2065970878695854e-02  7.4149150829549051e-02  6.5518250960698132e-02  5.6247057908862079e-02  4.6434151273977833e-02  3.6199432539695278e-02  2.5679370916244466e-02  1.5021249343849427e-02  4.3767763557755772e-03  -6.1045139987966884e-03  -1.6281628335504252e-02  -2.6027813431874488e-02  -3.5235205967080990e-02  -4.3818131848460860e-02  -5.1714862246958294e-02  -5.8887756884052428e-02  -6.5321853259855178e-02  -7.1022082365031255e-02  -7.6009396731345047e-02  -8.0316176651682780e-02  -8.3981328262438593e-02  -8.7045498705752136e-02  -8.9546807615334997e-02  -9.1517432977183552e-02  -9.2981298811796023e-02  -9.3953001088453988e-02  -9.4437988121002875e-02  -9.4433894764683057e-02  -9.3932827929002607e-02  -9.2924324184775572e-02  -9.1398655357757902e-02  -8.9350147860911014e-02  -8.6780204961721771e-02  -8.3699773370972202e-02  -8.0131068761664009e-02  -7.6108459570855908e-02  -7.1678494585062202e-02  -6.6899137808230813e-02  -6.1838336024792377e-02  -5.6572084835161122e-02  -5.1182175340993376e-02  -4.5753796941742232e-02  -4.0373145784737122e-02  -3.5125149621400419e-02  -3.0091375893595933e-02  -2.5348148676281722e-02  -2.0964868361277117e-02  -1.7002510195244725e-02  -1.3512275632384559e-02  -1.0534382596479191e-02  -8.0970032696057216e-03  -6.2153853109778393e-03  -4.8912181794849817e-03  -4.1123246423901633e-03  -3.8527641029902919e-03  -4.0734265326109976e-03  -4.7231732242700893e-03  -5.7405451177540015e-03  -7.0560147068059915e-03  -8.5947084454240357e-03  -1.0279478705690046e-02  -1.2034163295169391e-02  -1.3786841274769316e-02  -1.5472880083166468e-02  -1.7037572887981797e-02  -1.8438186874191902e-02  -1.9645281161322331e-02  -2.0643203828106315e-02  -2.1429736456871729e-02  -2.2014916326389952e-02  -2.2419125443397133e-02  -2.2670587090187148e-02  -2.2802450551064966e-02  -2.2849670526395763e-02  -2.2845898208512832e-02  -2.2820596181598610e-02  -2.2796570534153175e-02  -2.2788083261773250e-02  1.2442696020920202e-01  1.2438624107546245e-01  1.2420556297296276e-01  1.2389341667740338e-01  1.2346292951916565e-01  1.2292998043560220e-01  1.2231085408878087e-01  1.2161958685828933e-01  1.2086518120991656e-01  1.2004889584864703e-01  1.1916183953674278e-01  1.1818309834329362e-01  1.1707860683536006e-01  1.1580093374356498e-01  1.1429009440896949e-01  1.1247543010808536e-01  1.1027851394033576e-01  1.0761696112304776e-01  1.0440894531099448e-01  1.0057815845030454e-01  9.6058905000097311e-02  9.0800995801935666e-02  8.4774104410157008e-02  7.7971269693503500e-02  7.0411272042735257e-02  6.2139674548033735e-02  5.3228402005827083e-02  4.3773825403508632e-02  3.3893422094335296e-02  2.3721185245730768e-02  1.3402052111790625e-02  3.0857004390367352e-03  -7.0798824813382974e-03  -1.6954629571825797e-02  -2.6412004881485308e-02  -3.5343623931251213e-02  -4.3662589148930037e-02  -5.1305348033809081e-02  -5.8231999124269511e-02  -6.4425093368626674e-02  -6.9887095600161084e-02  -7.4636772663673537e-02  -7.8704852858932431e-02  -8.2129349187871861e-02  -8.4950952269185726e-02  -8.7208876467639793e-02  -8.8937486782811701e-02  -9.0163949699375232e-02  -9.0907046881891967e-02  -9.1177176897702175e-02  -9.0977458717768370e-02  -9.0305752863470631e-02  -8.9157341268004564e-02  -8.7527961835877868e-02  -8.5416881335647316e-02  -8.2829709870433393e-02  -7.9780707464839146e-02  -7.6294401230001585e-02  -7.2406411260182699e-02  -6.8163465313667376e-02  -6.3622657287565734e-02  -5.8850064793119827e-02  -5.3918881340813303e-02  -4.8907236194903149e-02  -4.3895870425153312e-02  -3.8965814609022612e-02  -3.4196177936613149e-02  -2.9662117463524654e-02  -2.5433017453468220e-02  -2.1570878605717003e-02  -1.8128899819904225e-02  -1.5150232608716152e-02  -1.2666899045943258e-02  -1.0698884472015540e-02  -9.2534406505585878e-03  -8.3246576524680076e-03  -7.8933778854527563e-03  -7.9275292087587976e-03  -8.3829437672618742e-03  -9.2047050432449654e-03  -1.0329029749972003e-02  -1.1685647382354669e-02  -1.3200593447058399e-02  -1.4799288060140440e-02  -1.6409734995388621e-02  -1.7965651879156962e-02  -1.9409333260990615e-02  -2.0694056312497187e-02  -2.1785863692597555e-02  -2.2664597688288299e-02  -2.3324110618172283e-02  -2.3771634112461314e-02  -2.4026349153189526e-02  -2.4117254596041447e-02  -2.4080479788966307e-02  -2.3956223331567435e-02  -2.3785522719320839e-02  -2.3607067669717253e-02  -2.3454263686134905e-02  -2.3352733309037640e-02  -2.3318412760625320e-02  1.1385030164121389e