<?xml version="1.0"?>
<VTKFile type="UnstructuredGrid"  version="0.1"  >
<UnstructuredGrid>
<Piece  NumberOfPoints="10201" NumberOfCells="20000">
<Points>
<DataArray  type="Float64"  NumberOfComponents="3"  format="ascii">0 0 0  0.25 0 0  0.5 0 0  0.75 0 0  1 0 0  1.25 0 0  1.5 0 0  1.75 0 0  2 0 0  2.25 0 0  2.5 0 0  2.75 0 0  3 0 0  3.25 0 0  3.5 0 0  3.75 0 0  4 0 0  4.25 0 0  4.5 0 0  4.75 0 0  5 0 0  5.25 0 0  5.5 0 0  5.75 0 0  6 0 0  6.25 0 0  6.5 0 0  6.75 0 0  7 0 0  7.25 0 0  7.5 0 0  7.75 0 0  8 0 0  8.25 0 0  8.5 0 0  8.75 0 0  9 0 0  9.25 0 0  9.5 0 0  9.75 0 0  10 0 0  10.25 0 0  10.5 0 0  10.75 0 0  11 0 0  11.25 0 0  11.5 0 0  11.75 0 0  12 0 0  12.25 0 0  12.5 0 0  12.75 0 0  13 0 0  13.25 0 0  13.5 0 0  13.75 0 0  14 0 0  14.25 0 0  14.5 0 0  14.75 0 0  15 0 0  15.25 0 0  15.5 0 0  15.75 0 0  16 0 0  16.25 0 0  16.5 0 0  16.75 0 0  17 0 0  17.25 0 0  17.5 0 0  17.75 0 0  18 0 0  18.25 0 0  18.5 0 0  18.75 0 0  19 0 0  19.25 0 0  19.5 0 0  19.75 0 0  20 0 0  20.25 0 0  20.5 0 0  20.75 0 0  21 0 0  21.25 0 0  21.5 0 0  21.75 0 0  22 0 0  22.25 0 0  22.5 0 0  22.75 0 0  23 0 0  23.25 0 0  23.5 0 0  23.75 0 0  24 0 0  24.25 0 0  24.5 0 0  24.75 0 0  25 0 0  0 0.25 0  0.25 0.25 0  0.5 0.25 0  0.75 0.25 0  1 0.25 0  1.25 0.25 0  1.5 0.25 0  1.75 0.25 0  2 0.25 0  2.25 0.25 0  2.5 0.25 0  2.75 0.25 0  3 0.25 0  3.25 0.25 0  3.5 0.25 0  3.75 0.25 0  4 0.25 0  4.25 0.25 0  4.5 0.25 0  4.75 0.25 0  5 0.25 0  5.25 0.25 0  5.5 0.25 0  5.75 0.25 0  6 0.25 0  6.25 0.25 0  6.5 0.25 0  6.75 0.25 0  7 0.25 0  7.25 0.25 0  7.5 0.25 0  7.75 0.25 0  8 0.25 0  8.25 0.25 0  8.5 0.25 0  8.75 0.25 0  9 0.25 0  9.25 0.25 0  9.5 0.25 0  9.75 0.25 0  10 0.25 0  10.25 0.25 0  10.5 0.25 0  10.75 0.25 0  11 0.25 0  11.25 0.25 0  11.5 0.25 0  11.75 0.25 0  12 0.25 0  12.25 0.25 0  12.5 0.25 0  12.75 0.25 0  13 0.25 0  13.25 0.25 0  13.5 0.25 0  13.75 0.25 0  14 0.25 0  14.25 0.25 0  14.5 0.25 0  14.75 0.25 0  15 0.25 0  15.25 0.25 0  15.5 0.25 0  15.75 0.25 0  16 0.25 0  16.25 0.25 0  16.5 0.25 0  16.75 0.25 0  17 0.25 0  17.25 0.25 0  17.5 0.25 0  17.75 0.25 0  18 0.25 0  18.25 0.25 0  18.5 0.25 0  18.75 0.25 0  19 0.25 0  19.25 0.25 0  19.5 0.25 0  19.75 0.25 0  20 0.25 0  20.25 0.25 0  20.5 0.25 0  20.75 0.25 0  21 0.25 0  21.25 0.25 0  21.5 0.25 0  21.75 0.25 0  22 0.25 0  22.25 0.25 0  22.5 0.25 0  22.75 0.25 0  23 0.25 0  23.25 0.25 0  23.5 0.25 0  23.75 0.25 0  24 0.25 0  24.25 0.25 0  24.5 0.25 0  24.75 0.25 0  25 0.25 0  0 0.5 0  0.25 0.5 0  0.5 0.5 0  0.75 0.5 0  1 0.5 0  1.25 0.5 0  1.5 0.5 0  1.75 0.5 0  2 0.5 0  2.25 0.5 0  2.5 0.5 0  2.75 0.5 0  3 0.5 0  3.25 0.5 0  3.5 0.5 0  3.75 0.5 0  4 0.5 0  4.25 0.5 0  4.5 0.5 0  4.75 0.5 0  5 0.5 0  5.25 0.5 0  5.5 0.5 0  5.75 0.5 0  6 0.5 0  6.25 0.5 0  6.5 0.5 0  6.75 0.5 0  7 0.5 0  7.25 0.5 0  7.5 0.5 0  7.75 0.5 0  8 0.5 0  8.25 0.5 0  8.5 0.5 0  8.75 0.5 0  9 0.5 0  9.25 0.5 0  9.5 0.5 0  9.75 0.5 0  10 0.5 0  10.25 0.5 0  10.5 0.5 0  10.75 0.5 0  11 0.5 0  11.25 0.5 0  11.5 0.5 0  11.75 0.5 0  12 0.5 0  12.25 0.5 0  12.5 0.5 0  12.75 0.5 0  13 0.5 0  13.25 0.5 0  13.5 0.5 0  13.75 0.5 0  14 0.5 0  14.25 0.5 0  14.5 0.5 0  14.75 0.5 0  15 0.5 0  15.25 0.5 0  15.5 0.5 0  15.75 0.5 0  16 0.5 0  16.25 0.5 0  16.5 0.5 0  16.75 0.5 0  17 0.5 0  17.25 0.5 0  17.5 0.5 0  17.75 0.5 0  18 0.5 0  18.25 0.5 0  18.5 0.5 0  18.75 0.5 0  19 0.5 0  19.25 0.5 0  19.5 0.5 0  19.75 0.5 0  20 0.5 0  20.25 0.5 0  20.5 0.5 0  20.75 0.5 0  21 0.5 0  21.25 0.5 0  21.5 0.5 0  21.75 0.5 0  22 0.5 0  22.25 0.5 0  22.5 0.5 0  22.75 0.5 0  23 0.5 0  23.25 0.5 0  23.5 0.5 0  23.75 0.5 0  24 0.5 0  24.25 0.5 0  24.5 0.5 0  24.75 0.5 0  25 0.5 0  0 0.75 0  0.25 0.75 0  0.5 0.75 0  0.75 0.75 0  1 0.75 0  1.25 0.75 0  1.5 0.75 0  1.75 0.75 0  2 0.75 0  2.25 0.75 0  2.5 0.75 0  2.75 0.75 0  3 0.75 0  3.25 0.75 0  3.5 0.75 0  3.75 0.75 0  4 0.75 0  4.25 0.75 0  4.5 0.75 0  4.75 0.75 0  5 0.75 0  5.25 0.75 0  5.5 0.75 0  5.75 0.75 0  6 0.75 0  6.25 0.75 0  6.5 0.75 0  6.75 0.75 0  7 0.75 0  7.25 0.75 0  7.5 0.75 0  7.75 0.75 0  8 0.75 0  8.25 0.75 0  8.5 0.75 0  8.75 0.75 0  9 0.75 0  9.25 0.75 0  9.5 0.75 0  9.75 0.75 0  10 0.75 0  10.25 0.75 0  10.5 0.75 0  10.75 0.75 0  11 0.75 0  11.25 0.75 0  11.5 0.75 0  11.75 0.75 0  12 0.75 0  12.25 0.75 0  12.5 0.75 0  12.75 0.75 0  13 0.75 0  13.25 0.75 0  13.5 0.75 0  13.75 0.75 0  14 0.75 0  14.25 0.75 0  14.5 0.75 0  14.75 0.75 0  15 0.75 0  15.25 0.75 0  15.5 0.75 0  15.75 0.75 0  16 0.75 0  16.25 0.75 0  16.5 0.75 0  16.75 0.75 0  17 0.75 0  17.25 0.75 0  17.5 0.75 0  17.75 0.75 0  18 0.75 0  18.25 0.75 0  18.5 0.75 0  18.75 0.75 0  19 0.75 0  19.25 0.75 0  19.5 0.75 0  19.75 0.75 0  20 0.75 0  20.25 0.75 0  20.5 0.75 0  20.75 0.75 0  21 0.75 0  21.25 0.75 0  21.5 0.75 0  21.75 0.75 0  22 0.75 0  22.25 0.75 0  22.5 0.75 0  22.75 0.75 0  23 0.75 0  23.25 0.75 0  23.5 0.75 0  23.75 0.75 0  24 0.75 0  24.25 0.75 0  24.5 0.75 0  24.75 0.75 0  25 0.75 0  0 1 0  0.25 1 0  0.5 1 0  0.75 1 0  1 1 0  1.25 1 0  1.5 1 0  1.75 1 0  2 1 0  2.25 1 0  2.5 1 0  2.75 1 0  3 1 0  3.25 1 0  3.5 1 0  3.75 1 0  4 1 0  4.25 1 0  4.5 1 0  4.75 1 0  5 1 0  5.25 1 0  5.5 1 0  5.75 1 0  6 1 0  6.25 1 0  6.5 1 0  6.75 1 0  7 1 0  7.25 1 0  7.5 1 0  7.75 1 0  8 1 0  8.25 1 0  8.5 1 0  8.75 1 0  9 1 0  9.25 1 0  9.5 1 0  9.75 1 0  10 1 0  10.25 1 0  10.5 1 0  10.75 1 0  11 1 0  11.25 1 0  11.5 1 0  11.75 1 0  12 1 0  12.25 1 0  12.5 1 0  12.75 1 0  13 1 0  13.25 1 0  13.5 1 0  13.75 1 0  14 1 0  14.25 1 0  14.5 1 0  14.75 1 0  15 1 0  15.25 1 0  15.5 1 0  15.75 1 0  16 1 0  16.25 1 0  16.5 1 0  16.75 1 0  17 1 0  17.25 1 0  17.5 1 0  17.75 1 0  18 1 0  18.25 1 0  18.5 1 0  18.75 1 0  19 1 0  19.25 1 0  19.5 1 0  19.75 1 0  20 1 0  20.25 1 0  20.5 1 0  20.75 1 0  21 1 0  21.25 1 0  21.5 1 0  21.75 1 0  22 1 0  22.25 1 0  22.5 1 0  22.75 1 0  23 1 0  23.25 1 0  23.5 1 0  23.75 1 0  24 1 0  24.25 1 0  24.5 1 0  24.75 1 0  25 1 0  0 1.25 0  0.25 1.25 0  0.5 1.25 0  0.75 1.25 0  1 1.25 0  1.25 1.25 0  1.5 1.25 0  1.75 1.25 0  2 1.25 0  2.25 1.25 0  2.5 1.25 0  2.75 1.25 0  3 1.25 0  3.25 1.25 0  3.5 1.25 0  3.75 1.25 0  4 1.25 0  4.25 1.25 0  4.5 1.25 0  4.75 1.25 0  5 1.25 0  5.25 1.25 0  5.5 1.25 0  5.75 1.25 0  6 1.25 0  6.25 1.25 0  6.5 1.25 0  6.75 1.25 0  7 1.25 0  7.25 1.25 0  7.5 1.25 0  7.75 1.25 0  8 1.25 0  8.25 1.25 0  8.5 1.25 0  8.75 1.25 0  9 1.25 0  9.25 1.25 0  9.5 1.25 0  9.75 1.25 0  10 1.25 0  10.25 1.25 0  10.5 1.25 0  10.75 1.25 0  11 1.25 0  11.25 1.25 0  11.5 1.25 0  11.75 1.25 0  12 1.25 0  12.25 1.25 0  12.5 1.25 0  12.75 1.25 0  13 1.25 0  13.25 1.25 0  13.5 1.25 0  13.75 1.25 0  14 1.25 0  14.25 1.25 0  14.5 1.25 0  14.75 1.25 0  15 1.25 0  15.25 1.25 0  15.5 1.25 0  15.75 1.25 0  16 1.25 0  16.25 1.25 0  16.5 1.25 0  16.75 1.25 0  17 1.25 0  17.25 1.25 0  17.5 1.25 0  17.75 1.25 0  18 1.25 0  18.25 1.25 0  18.5 1.25 0  18.75 1.25 0  19 1.25 0  19.25 1.25 0  19.5 1.25 0  19.75 1.25 0  20 1.25 0  20.25 1.25 0  20.5 1.25 0  20.75 1.25 0  21 1.25 0  21.25 1.25 0  21.5 1.25 0  21.75 1.25 0  22 1.25 0  22.25 1.25 0  22.5 1.25 0  22.75 1.25 0  23 1.25 0  23.25 1.25 0  23.5 1.25 0  23.75 1.25 0  24 1.25 0  24.25 1.25 0  24.5 1.25 0  24.75 1.25 0  25 1.25 0  0 1.5 0  0.25 1.5 0  0.5 1.5 0  0.75 1.5 0  1 1.5 0  1.25 1.5 0  1.5 1.5 0  1.75 1.5 0  2 1.5 0  2.25 1.5 0  2.5 1.5 0  2.75 1.5 0  3 1.5 0  3.25 1.5 0  3.5 1.5 0  3.75 1.5 0  4 1.5 0  4.25 1.5 0  4.5 1.5 0  4.75 1.5 0  5 1.5 0  5.25 1.5 0  5.5 1.5 0  5.75 1.5 0  6 1.5 0  6.25 1.5 0  6.5 1.5 0  6.75 1.5 0  7 1.5 0  7.25 1.5 0  7.5 1.5 0  7.75 1.5 0  8 1.5 0  8.25 1.5 0  8.5 1.5 0  8.75 1.5 0  9 1.5 0  9.25 1.5 0  9.5 1.5 0  9.75 1.5 0  10 1.5 0  10.25 1.5 0  10.5 1.5 0  10.75 1.5 0  11 1.5 0  11.25 1.5 0  11.5 1.5 0  11.75 1.5 0  12 1.5 0  12.25 1.5 0  12.5 1.5 0  12.75 1.5 0  13 1.5 0  13.25 1.5 0  13.5 1.5 0  13.75 1.5 0  14 1.5 0  14.25 1.5 0  14.5 1.5 0  14.75 1.5 0  15 1.5 0  15.25 1.5 0  15.5 1.5 0  15.75 1.5 0  16 1.5 0  16.25 1.5 0  16.5 1.5 0  16.75 1.5 0  17 1.5 0  17.25 1.5 0  17.5 1.5 0  17.75 1.5 0  18 1.5 0  18.25 1.5 0  18.5 1.5 0  18.75 1.5 0  19 1.5 0  19.25 1.5 0  19.5 1.5 0  19.75 1.5 0  20 1.5 0  20.25 1.5 0  20.5 1.5 0  20.75 1.5 0  21 1.5 0  21.25 1.5 0  21.5 1.5 0  21.75 1.5 0  22 1.5 0  22.25 1.5 0  22.5 1.5 0  22.75 1.5 0  23 1.5 0  23.25 1.5 0  23.5 1.5 0  23.75 1.5 0  24 1.5 0  24.25 1.5 0  24.5 1.5 0  24.75 1.5 0  25 1.5 0  0 1.75 0  0.25 1.75 0  0.5 1.75 0  0.75 1.75 0  1 1.75 0  1.25 1.75 0  1.5 1.75 0  1.75 1.75 0  2 1.75 0  2.25 1.75 0  2.5 1.75 0  2.75 1.75 0  3 1.75 0  3.25 1.75 0  3.5 1.75 0  3.75 1.75 0  4 1.75 0  4.25 1.75 0  4.5 1.75 0  4.75 1.75 0  5 1.75 0  5.25 1.75 0  5.5 1.75 0  5.75 1.75 0  6 1.75 0  6.25 1.75 0  6.5 1.75 0  6.75 1.75 0  7 1.75 0  7.25 1.75 0  7.5 1.75 0  7.75 1.75 0  8 1.75 0  8.25 1.75 0  8.5 1.75 0  8.75 1.75 0  9 1.75 0  9.25 1.75 0  9.5 1.75 0  9.75 1.75 0  10 1.75 0  10.25 1.75 0  10.5 1.75 0  10.75 1.75 0  11 1.75 0  11.25 1.75 0  11.5 1.75 0  11.75 1.75 0  12 1.75 0  12.25 1.75 0  12.5 1.75 0  12.75 1.75 0  13 1.75 0  13.25 1.75 0  13.5 1.75 0  13.75 1.75 0  14 1.75 0  14.25 1.75 0  14.5 1.75 0  14.75 1.75 0  15 1.75 0  15.25 1.75 0  15.5 1.75 0  15.75 1.75 0  16 1.75 0  16.25 1.75 0  16.5 1.75 0  16.75 1.75 0  17 1.75 0  17.25 1.75 0  17.5 1.75 0  17.75 1.75 0  18 1.75 0  18.25 1.75 0  18.5 1.75 0  18.75 1.75 0  19 1.75 0  19.25 1.75 0  19.5 1.75 0  19.75 1.75 0  20 1.75 0  20.25 1.75 0  20.5 1.75 0  20.75 1.75 0  21 1.75 0  21.25 1.75 0  21.5 1.75 0  21.75 1.75 0  22 1.75 0  22.25 1.75 0  22.5 1.75 0  22.75 1.75 0  23 1.75 0  23.25 1.75 0  23.5 1.75 0  23.75 1.75 0  24 1.75 0  24.25 1.75 0  24.5 1.75 0  24.75 1.75 0  25 1.75 0  0 2 0  0.25 2 0  0.5 2 0  0.75 2 0  1 2 0  1.25 2 0  1.5 2 0  1.75 2 0  2 2 0  2.25 2 0  2.5 2 0  2.75 2 0  3 2 0  3.25 2 0  3.5 2 0  3.75 2 0  4 2 0  4.25 2 0  4.5 2 0  4.75 2 0  5 2 0  5.25 2 0  5.5 2 0  5.75 2 0  6 2 0  6.25 2 0  6.5 2 0  6.75 2 0  7 2 0  7.25 2 0  7.5 2 0  7.75 2 0  8 2 0  8.25 2 0  8.5 2 0  8.75 2 0  9 2 0  9.25 2 0  9.5 2 0  9.75 2 0  10 2 0  10.25 2 0  10.5 2 0  10.75 2 0  11 2 0  11.25 2 0 
[...]
<PointData  Scalars="f_23"> 
<DataArray  type="Float64"  Name="f_23"  format="ascii">7.2214692368510958e-01  7.1874929154042044e-01  7.1128237857415411e-01  6.9917194300750318e-01  6.8202206786339348e-01  6.5942495070425022e-01  6.3093681206834173e-01  5.9610449138156674e-01  5.5451870330641984e-01  5.0588802887029560e-01  4.5012832376023132e-01  3.8745728089164327e-01  3.1847726456995334e-01  2.4422457318213270e-01  1.6616375379631435e-01  8.6114239189705233e-02  6.1128282661773222e-03  -7.1765712066222578e-02  -1.4559425946187562e-01  -2.1374780088898318e-01  -2.7500013544093665e-01  -3.2855414887346651e-01  -3.7401432491258385e-01  -4.1132096200087825e-01  -4.4066817533629976e-01  -4.6242413002641974e-01  -4.7706543750264485e-01  -4.8513110979084229e-01  -4.8719643706547255e-01  -4.8386397216931981e-01  -4.7576714016067295e-01  -4.6358132931686641e-01  -4.4803725844916287e-01  -4.2993175237871861e-01  -4.1013175858085404e-01  -3.8956853618976506e-01  -3.6922043285393341e-01  -3.5008440402582813e-01  -3.3313816407796115e-01  -3.1929627322723075e-01  -3.0936430488848959e-01  -3.0399541811637543e-01  -3.0365328800536828e-01  -3.0858465671655316e-01  -3.1880398332585475e-01  -3.3409188629261899e-01  -3.5400821817419681e-01  -3.7791953148167151e-01  -4.0503929322747334e-01  -4.3447758730326108e-01  -4.6529554059212880e-01  -4.9655877228377310e-01  -5.2738416396054877e-01  -5.5697527719674700e-01  -5.8464356673262252e-01  -6.0981467020640734e-01  -6.3202097288497694e-01  -6.5088296495144848e-01  -6.6608249259915886e-01  -6.7733095285066514e-01  -6.8433505251793392e-01  -6.8676226116554828e-01  -6.8420784427188830e-01  -6.7616563208502445e-01  -6.6200567068635263e-01  -6.4096372741985297e-01  -6.1215018717841141e-01  -5.7458864133116938e-01  -5.2729611449204417e-01  -4.6941500455277552e-01  -4.0039821337368009e-01  -3.2023109917164050e-01  -2.2964819584425830e-01  -1.3027814883093355e-01  -2.4643709508367802e-02  8.4029103902469565e-02  1.9217745545259848e-01  2.9635891577354695e-01  3.9367562460793243e-01  4.8205729798836028e-01  5.6035480960663286e-01  6.2826398183668841e-01  6.8614223205836700e-01  7.3478848434945565e-01  7.7523954323762090e-01  8.0861080424059806e-01  8.3598792428791913e-01  8.5836336102991750e-01  8.7660665623953637e-01  8.9145717680459480e-01  9.0353011204367295e-01  9.1332915271002535e-01  9.2126160514087929e-01  9.2765344722480492e-01  9.3276301996435695e-01  9.3679278295082868e-01  9.3989896599717104e-01  9.4219909729470597e-01  9.4377721691140426e-01  9.4468550675104512e-01  9.4493609118856225e-01  7.1682033223628860e-01  7.1417160889255071e-01  7.0682889897747525e-01  6.9467366104793105e-01  6.7741405729464399e-01  6.5467193969304693e-01  6.2601763903120966e-01  5.9101009646148683e-01  5.4925347449018402e-01  5.0047169420977444e-01  4.4459714508958453e-01  3.8186369344638055e-01  3.1288740771946094e-01  2.3871363359323916e-01  1.6080965433346592e-01  8.0990742989845377e-02  1.2833420184919591e-03  -7.6252568545462293e-02  -1.4970678610516747e-01  -2.1747111742286995e-01  -2.7833433855045303e-01  -3.3151138740103081e-01  -3.7661542246057772e-01  -4.1359208117897117e-01  -4.4263785584137355e-01  -4.6412088270654711e-01  -4.7851595430674498e-01  -4.8635906155576292e-01  -4.8822177897596464e-01  -4.8470265685138952e-01  -4.7643114269796683e-01  -4.6407890678464553e-01  -4.4837338885072686e-01  -4.3010871608488238e-01  -4.1014983442871961e-01  -3.8942678293583988e-01  -3.6891751743458079e-01  -3.4961942721587469e-01  -3.3251142898063824e-01  -3.1850994758416173e-01  -3.0842294407368698e-01  -3.0290633545281354e-01  -3.0242677313786098e-01  -3.0723404376672336e-01  -3.1734555814805393e-01  -3.3254460483014292e-01  -3.5239319981189871e-01  -3.7625930517491735e-01  -4.0335681378972110e-01  -4.3279509509637842e-01  -4.6363338982073815e-01  -4.9493437912477217e-01  -5.2581121283605525e-01  -5.5546327425103525e-01  -5.8319776081668795e-01  -6.0843629601642502e-01  -6.3070772673194087e-01  -6.4962960896912847e-01  -6.6488149551124243e-01  -6.7617310588713508e-01  -6.8321003773292222e-01  -6.8565918857512198e-01  -6.8311580907463831e-01  -6.7507436986144731e-01  -6.6090640038745374e-01  -6.3985025611870172e-01  -6.1102028559536969e-01  -5.7344556059688179e-01  -5.2614989483859487e-01  -4.6828297362988819e-01  -3.9930393172653361e-01  -3.1920121808428276e-01  -2.2870743091569751e-01  -1.2944369693781335e-01  -2.3921297093502342e-02  8.4645609359428400e-02  1.9270255105904585e-01  2.9680980818871117e-01  3.9406712125021576e-01  4.8239920970053762e-01  5.6065211810915450e-01  6.2851867268020867e-01  6.8635539030129988e-01  7.3496174790555435e-01  7.7537568486294828e-01  8.0871364993708039e-01  8.3606194244816989e-01  8.5841319192876198e-01  8.7663673049369606e-01  8.9147147105727054e-01  9.0353203196099452e-01  9.1332151043894894e-01  9.2124665645874193e-01  9.2763296122605543e-01  9.3273836518232345e-01  9.3676502831541797e-01  9.3986902461381772e-01  9.4216803953704420e-01  9.4374729322059681e-01  9.4466433687153717e-01  9.4495584232626462e-01  7.0341233548760573e-01  7.0087973597331787e-01  6.9349068229194921e-01  6.8113084027483262e-01  6.6354482678796567e-01  6.4038355348153342e-01  6.1124401623348712e-01  5.7571517067838829e-01  5.3343754811960775e-01  4.8417850301912174e-01  4.2791946509715867e-01  3.6494523628627856e-01  2.9591894454887901e-01  2.2192212719859150e-01  1.4444073379343364e-01  6.5286774041694973e-02  -1.3539080684578424e-02  -9.0021390666331427e-02  -1.6230611448083918e-01  -2.2884424004853252e-01  -2.8847887601171213e-01  -3.4046889910562794e-01  -3.8445838082941730e-01  -4.2041081056651447e-01  -4.4852920714722921e-01  -4.6917950224200683e-01  -4.8282828179305853e-01  -4.8999975307666893e-01  -4.9125206716289149e-01  -4.8717015009042447e-01  -4.7837064286995107e-01  -4.6551392721631285e-01  -4.4931814262562109e-01  -4.3057040318520495e-01  -4.1013108373524881e-01  -3.8892811169764430e-01  -3.6793967148608570e-01  -3.4816547473089721e-01  -3.3058850776753301e-01  -3.1613060976514307e-01  -3.0560609116788645e-01  -2.9967777440176047e-01  -2.9881943493808572e-01  -3.0328788664767986e-01  -3.1310713662483264e-01  -3.2806624669269202e-01  -3.4773172131525681e-01  -3.7147422876334002e-01  -3.9850813315220524e-01  -4.2794073839313967e-01  -4.5882662755962456e-01  -4.9022147163640445e-01  -5.2122957218934574e-01  -5.5104033031223865e-01  -5.7895059741560118e-01  -6.0437199799137142e-01  -6.2682428465167683e-01  -6.4591718325048775e-01  -6.6132384603934613e-01  -6.7274903547452425e-01  -6.7989476160029594e-01  -6.8242561285973391e-01  -6.7993576876919781e-01  -6.7191993339395928e-01  -6.5775138671795952e-01  -6.3667211804431001e-01  -6.0780246839264573e-01  -5.7018031922759793e-01  -5.2284132193064248e-01  -4.6494966536650068e-01  -3.9598038787819578e-01  -3.1593692676460627e-01  -2.2556287246309095e-01  -1.2648334222700616e-01  -2.1204862559339066e-02  8.7071450318522522e-02  1.9480975842239276e-01  2.9859062497526884e-01  3.9553201417688127e-01  4.8357243580083709e-01  5.6156652855478839e-01  6.2921097228056710e-01  6.8686246113308258e-01  7.3531815925691124e-01  7.7561224696340947e-01  8.0885677420108004e-01  8.3613356694908680e-01  8.5843106438816319e-01  8.7661488628974815e-01  8.9142078917320389e-01  9.0346079194300266e-01  9.1323590576812985e-01  9.2115124382060065e-01  9.2753104221955562e-01  9.3263230969982835e-01  9.3665656160176247e-01  9.3975952080787228e-01  9.4205890614188104e-01  9.4364058999072609e-01  9.4456361437574565e-01  9.4486481320033744e-01  6.8099309894312332e-01  6.7840989722470080e-01  6.7081791030172566e-01  6.5807992576212970e-01  6.3995406744802164e-01  6.1611851164991283e-01  5.8620704408166580e-01  5.4985608669351382e-01  5.0676572778766682e-01  4.5677469260172732e-01  3.9994455425671832e-01  3.3664263644760767e-01  2.6760740951929896e-01  1.9397719307823760e-01  1.1726547231438852e-01  3.9275648805953668e-02  -3.8036947170733630e-02  -1.1273248308545079e-01  -1.8305080115303762e-01  -2.4754078644672531e-01  -3.0513453425410192e-01  -3.5516202613277598e-01  -3.9731647389173991e-01  -4.3158876926208534e-01  -4.5819071057027633e-01  -4.7748284555514420e-01  -4.8991681164673245e-01  -4.9599632938173971e-01  -4.9625669994410521e-01  -4.9125996695858987e-01  -4.8160148795592783e-01  -4.6792306883614548e-01  -4.5092771304283957e-01  -4.3139128592909365e-01  -4.1016700504656367e-01  -3.8817970235956323e-01  -3.6640827007648857e-01  -3.4585646691299904e-01  -3.2751405050114923e-01  -3.1231166896557733e-01  -3.0107380523790062e-01  -2.9447421602076507e-01  -2.9299785732569750e-01  -2.9691250373059230e-01  -3.0625241708186457e-01  -3.2081563530072005e-01  -3.4017567734152915e-01  -3.6370751776484117e-01  -3.9062642624783706e-01  -4.2003673156282945e-01  -4.5098604029074102e-01  -4.8251936480876828e-01  -5.1372740599819477e-01  -5.4378406617133068e-01  -5.7196996876420558e-01  -5.9768088683642784e-01  -6.2042199255717179e-01  -6.3979030634598200e-01  -6.5544845786139427e-01  -6.6709293463482011e-01  -6.7441963057852339e-01  -6.7708903779702800e-01  -6.7469317192071132e-01  -6.6672655932772040e-01  -6.5256455112989198e-01  -6.3145395968213769e-01  -6.0252341388106656e-01  -5.6482333743145408e-01  -5.1740676391400975e-01  -4.5946003875000047e-01  -3.9048386354911924e-01  -3.1050792970528812e-01  -2.2029812407770261e-01  -1.2149255507936735e-01  -1.6596972929117517e-02  9.1203671423780386e-02  1.9840271816252378e-01  3.0161705501376895e-01  3.9800082765239825e-01  4.8552238537001652e-01  5.6305641783193316e-01  6.3030941184126066e-01  6.8763931020614766e-01  7.3583859524689954e-01  7.7593343932941072e-01  8.0902661857096458e-01  8.3619079609697256e-01  8.5840613442727209e-01  8.7653119915383815e-01  8.9129597347983713e-01  9.0330788987730348e-01  9.1306439860431543e-01  9.2096790030355025e-01  9.2734060239653049e-01  9.3243803096689737e-01  9.3646066033742270e-01  9.3956354497079830e-01  9.4186406512132992e-01  9.4344800928770478e-01  9.4437424143080306e-01  9.4467802385982358e-01  6.4863207477668394e-01  6.4594278536236061e-01  6.3803818321270256e-01  6.2477500609568393e-01  6.0592780464490359e-01  5.8120882938413521e-01  5.5030195276778771e-01  5.1291020944371402e-01  4.6881713679121195e-01  4.1795994490813515e-01  3.6050841260019223e-01  2.9693826919881172e-01  2.2808334136229597e-01  1.5514930370932936e-01  7.9675782019353145e-02  3.4435671153153417e-03  -7.1662327340311541e-02  -1.4381000723290790e-01  -2.1136818652763517e-01  -2.7301667357672121e-01  -3.2780406152301639e-01  -3.7515145713394832e-01  -4.1481332981381436e-01  -4.4681295775548541e-01  -4.7137020424431991e-01  -4.8883545453465571e-01  -4.9963807384939540e-01  -5.0425267376496385e-01  -5.0318272464952296e-01  -4.9695871753264897e-01  -4.8614682969798317e-01  -4.7136348505446629e-01  -4.5329105086108912e-01  -4.3269008541872384e-01  -4.1040409260210214e-01  -3.8735373367697068e-01  -3.6451890906208334e-01  -3.4290891718710176e-01  -3.2352273188089309e-01  -3.0730294425118354e-01  -2.9508778252680529e-01  -2.8756573861242291e-01  -2.8523681542710605e-01  -2.8838355239998836e-01  -2.9705408674753869e-01  -3.1105872267764445e-01  -3.2998076037421858e-01  -3.5320148750558111e-01  -3.7993807604632673e-01  -4.0929165297051556e-01  -4.4030127792112922e-01  -4.7199840556813977e-01  -5.0345607270398640e-01  -5.3382774788872656e-01  -5.6237239211181744e-01  -5.8846438224285091e-01  -6.1158900353162238e-01  -6.3132577073807250e-01  -6.4732266818003026e-01  -6.5926454393451728e-01  -6.6683858236090376e-01  -6.6969933363391465e-01  -6.6743552679132223e-01  -6.5954111714123076e-01  -6.4539392925014416e-01  -6.2424694325784469e-01  -5.9523959515283753e-01  -5.5743883867799349e-01  -5.0992083073677541e-01  -4.5190170370016308e-01  -3.8291711951059582e-01  -3.0303317281896497e-01  -2.1304750711983383e-01  -1.1461786945049754e-01  -1.0250910098172895e-02  9.6889217645234726e-02  2.0333572553552251e-01  3.0575657966962344e-01  4.0135781412418287e-01  4.8815120805781886e-01  5.6504095053278514e-01  6.3174805369416320e-01  6.8863230100241035e-01  7.3647918506340704e-01  7.7630296929076414e-01  8.0919271809266569e-01  8.3620765320321788e-01  8.5831591081185654e-01  8.7636591547154252e-01  8.9107944477593004e-01  9.0305748831942123e-01  9.1279255172945806e-01  9.2068330983424351e-01  9.2704920805555413e-01  9.3214375991763732e-01  9.3616600545234852e-01  9.3927000812419215e-01  9.4157248208112021e-01  9.4315872844649895e-01  9.4408705029994866e-01  9.4439169825998870e-01  6.0527792951203607e-01  6.0246484683050427e-01  5.9418100727408851e-01  5.8029254535946229e-01  5.6060185594607082e-01  5.3486836195021370e-01  5.0284306658957789e-01  4.6431662979131122e-01  4.1917984108121320e-01  3.6749292145741552e-01  3.0955627357719323e-01  2.4597105168374128e-01  1.7767490888088924e-01  1.0593859360848776e-01  3.2314329863642965e-02  -4.1462978173651591e-02  -1.1360834728502917e-01  -1.8242973629815445e-01  -2.4645472503307739e-01  -3.0451899311781666e-01  -3.5580583269102989e-01  -3.9983860735177634e-01  -4.3643780056376597e-01  -4.6565870984384922e-01  -4.8772518383136276e-01  -5.0297095995476160e-01  -5.1179531303414616e-01  -5.1463540471716296e-01  -5.1195458849785158e-01  -5.0424397253706721e-01  -4.9203346082970822e-01  -4.7590794692616400e-01  -4.5652411870872861e-01  -4.3462341086586537e-01  -4.1103709861770121e-01  -3.8668047235257696e-01  -3.6253449359937373e-01  -3.3961516788181401e-01  -3.1893276617850519e-01  -3.0144458359934007e-01  -2.8800580528954001e-01  -2.7932312650823166e-01  -2.7591517788603775e-01  -2.7808285613048678e-01  -2.8589169305705470e-01  -2.9916760115460711e-01  -3.1750667394970744e-01  -3.4029898377212098e-01  -3.6676528557583726e-01  -3.9600414868128181e-01  -4.2704551035920840e-01  -4.5890540505265137e-01  -4.9063613337465645e-01  -5.2136666653379893e-01  -5.5032956962990587e-01  -5.7687278824523136e-01  -6.0045673894728024e-01  -6.2063879746339923e-01  -6.3704822811655992e-01  -6.4935484749817773e-01  -6.5723447527871537e-01  -6.6033381428857385e-01  -6.5823715535033478e-01  -6.5043751188335608e-01  -6.3631566799094308e-01  -6.1513225503565960e-01  -5.8604019783832006e-01  -5.4812708603258886e-01  -5.0049789790426924e-01  -4.4240581468381024e-01  -3.7342987933039817e-01  -2.9368122669939029e-01  -2.0399660423258856e-01  -1.0605762415139505e-01  -2.3713297589087741e-03  1.0392486820815248e-01  2.0941474686362768e-01  3.1083077585277646e-01  4.0544435276741325e-01  4.9132179777614327e-01  5.6740411153141168e-01  6.3343008572280002e-01  6.8976118839035483e-01  7.3717343841897376e-01  7.7666547596166147e-01  8.0930857771226705e-01  8.3614465219905387e-01  8.5812643830186675e-01  8.7608945253571635e-01  8.9074508979277978e-01  9.0268623703034789e-01  9.1239921985999939e-01  9.2027808415988310e-01  9.2663886074814994e-01  9.3173257964672052e-01  9.3575649994932142e-01  9.3886342396947553e-01  9.4116917132288280e-01  9.4275837093877124e-01  9.4368873016146104e-01  9.4399388940301776e-01  5.4985934365175104e-01  5.4692862889842420e-01  5.3824481610006314e-01  5.2369650609086227e-01  5.0312816973154317e-01  4.7636283706495286e-01  4.4323778221157517e-01  4.0365242647975241e-01  3.5762613796648357e-01  3.0536101151616185e-01  2.4730136175790049e-01  1.8417853424809599e-01  1.1702827375057272e-01  4.7169904235392759e-02  -2.3857199899120243e-02  -9.4394813448512097e-02  -1.6278963161257373e-01  -2.2751778263501293e-01  -2.8728778687433221e-01  -3.4110580861921336e-01  -3.8829727975256695e-01  -4.2848933987173643e-01  -4.6156569721522367e-01  -4.8760810283240114e-01  -5.0683727437109238e-01  -5.1956250481685418e-01  -5.2614506500149449e-01  -5.2697697606742655e-01  -5.2247420601905514e-01  -5.1308175760073238e-01  -4.9928718098884300e-01  -4.8163849645642637e-01  -4.6076221263854100e-01  -4.3737709337989533e-01  -4.1229968607923584e-01  -3.8643851540141722e-01  -3.6077530740439873e-01  -3.3633349598891399e-01  -3.1413623936413532e-01  -2.9515780184099166e-01  -2.8027306331982343e-01  -2.7020995718289226e-01  -2.6550894695872990e-01  -2.6649258563862954e-01  -2.7324714405998973e-01  -2.8561747619541439e-01  -3.0321568865737414e-01  -3.2544357402021201e-01  -3.5152788592622647e-01  -3.8056626431829310e-01  -4.1158012100376157e-01  -4.4356947646125039e-01  -4.7556408245864268e-01  -5.0666549989401832e-01  -5.3607613099244378e-01  -5.6311319607710120e-01  -5.8720777142159641e-01  -6.0789076330869452e-01  -6.2476878034714223e-01  -6.3749324249929695e-01  -6.4572591648305055e-01  -6.4910370516154814e-01  -6.4720528405728739e-01  -6.3952237273378920e-01  -6.2543926951557749e-01  -6.0422584113473876e-01  -5.7505126667544126e-01  -5.3702785460574232e-01  -4.8929483935558221e-01  -4.3114904344784166e-01  -3.6222007948606916e-01  -2.8267089474817592e-01  -1.9338230247651941e-01  -9.6061457648237106e-02  6.7868601097180155e-03  1.1205908637103797e-01  2.1640005989110259e-01  3.1661867056013787e-01  4.1006277910776928e-01  4.9486175206193461e-01  5.6999844350858830e-01  6.3523106768277082e-01  6.9092172885175218e-01  7.3783419366958347e-01  7.7694787490371087e-01  8.0931251609562371e-01  8.3594925421253563e-01  8.5779247115036894e-01  8.7566237448732875e-01  8.9025810479714229e-01  9.0216303148798249e-01  9.1185625608549414e-01  9.1972643957321965e-01  9.2608565816832233e-01  9.3118207479477300e-01  9.3521089323057027e-01  9.3832345465007971e-01  9.4063453943063258e-01  9.4222802130682182e-01  9.4316103407394636e-01  9.4346678844021092e-01  4.8149922667630507e-01  4.7847923588533670e-01  4.6942877206123568e-01  4.5427116358886427e-01  4.3290776828875577e-01  4.0524218434755754e-01  3.7121624948646392e-01  3.3085608890887169e-01  2.8432472954822235e-01  2.3197536392990176e-01  1.7439672723701444e-01  1.1244023874921591e-01  4.7218824122049495e-02  -1.9929297592345133e-02  -8.7512045343850153e-02  -1.5398201774668613e-01  -2.1784666889095666e-01  -2.7777107516649024e-01  -3.3265607687180709e-01  -3.8168117203049157e-01  -4.2431035162823721e-01  -4.6026697538067901e-01  -4.8948858525278788e-01  -5.1207366719468184e-01  -5.2823061870822163e-01  -5.3823598288972907e-01  -5.4240564646282852e-01  -5.4107992589084952e-01  -5.3462150550870413e-01  -5.2342392416425687e-01  -5.0792748836945678e-01  -4.8863891855051950e-01  -4.6615063705479864e-01  -4.4115545123304795e-01  -4.1445263770475149e-01  -3.8694226313877816e-01  -3.5960603867529223e-01  -3.3347495299722052e-01  -3.0958600199440378e-01  -2.8893205233322761e-01  -2.7240982604710373e-01  -2.6077099928007147e-01  -2.5458061588250086e-01  -2.5418581491043657e-01  -2.5969669915312860e-01  -2.7098030866596545e-01  -2.8766811295851902e-01  -3.0917696235326320e-01  -3.3474273162492907e-01  -3.6346476776649878e-01  -3.9435781546082083e-01  -4.2640671280061604e-01  -4.5861832381539241e-01  -4.9006528927094850e-01  -5.1991731371705341e-01  -5.4745759390197890e-01  -5.7208412853296864e-01  -5.9329750956609972e-01  -6.1067803082274030e-01  -6.2385547335179559e-01  -6.3247489058930328e-01  -6.3616141947953453e-01  -6.3448693050162863e-01  -6.2694151044409596e-01  -6.1291356813976772e-01  -5.9168383412807679e-01  -5.6244049201831425e-01  -5.2432447315193531e-01  -4.7651421630080476e-01  -4.1835582113010628e-01  -3.4953510147734340e-01  -2.7027141315198266e-01  -1.8149198090797450e-01  -8.4928539311837664e-02  1.6921134665141675e-02  1.2099539143288966e-01  2.2401017959616593e-01  3.2286098192914914e-01  4.1498066602195088e-01  4.9856742104193796e-01  5.7264864051390318e-01  6.3700192632485730e-01  6.9198802262239090e-01  7.3835532781312407e-01  7.7706050753817468e-01  8.0912835076823109e-01  8.3555618886861927e-01  8.5725752205925687e-01  8.7503524527919041e-01  8.8957471239969532e-01  9.0144863822155563e-01  9.1112807769610094e-01  9.1899572485348424e-01  9.2535929691025742e-01  9.3046381260661482e-01  9.3450223224299889e-01  9.3762430979519373e-01  9.3994370792028836e-01  9.4154351329783781e-01  9.4248030992412213e-01  9.4278695446242178e-01  3.9981003983709545e-01  3.9674992076958943e-01  3