<?xml version="1.0"?>
<VTKFile type="UnstructuredGrid"  version="0.1"  >
<UnstructuredGrid>
<Piece  NumberOfPoints="10201" NumberOfCells="20000">
<Points>
<DataArray  type="Float64"  NumberOfComponents="3"  format="ascii">0 0 0  0.25 0 0  0.5 0 0  0.75 0 0  1 0 0  1.25 0 0  1.5 0 0  1.75 0 0  2 0 0  2.25 0 0  2.5 0 0  2.75 0 0  3 0 0  3.25 0 0  3.5 0 0  3.75 0 0  4 0 0  4.25 0 0  4.5 0 0  4.75 0 0  5 0 0  5.25 0 0  5.5 0 0  5.75 0 0  6 0 0  6.25 0 0  6.5 0 0  6.75 0 0  7 0 0  7.25 0 0  7.5 0 0  7.75 0 0  8 0 0  8.25 0 0  8.5 0 0  8.75 0 0  9 0 0  9.25 0 0  9.5 0 0  9.75 0 0  10 0 0  10.25 0 0  10.5 0 0  10.75 0 0  11 0 0  11.25 0 0  11.5 0 0  11.75 0 0  12 0 0  12.25 0 0  12.5 0 0  12.75 0 0  13 0 0  13.25 0 0  13.5 0 0  13.75 0 0  14 0 0  14.25 0 0  14.5 0 0  14.75 0 0  15 0 0  15.25 0 0  15.5 0 0  15.75 0 0  16 0 0  16.25 0 0  16.5 0 0  16.75 0 0  17 0 0  17.25 0 0  17.5 0 0  17.75 0 0  18 0 0  18.25 0 0  18.5 0 0  18.75 0 0  19 0 0  19.25 0 0  19.5 0 0  19.75 0 0  20 0 0  20.25 0 0  20.5 0 0  20.75 0 0  21 0 0  21.25 0 0  21.5 0 0  21.75 0 0  22 0 0  22.25 0 0  22.5 0 0  22.75 0 0  23 0 0  23.25 0 0  23.5 0 0  23.75 0 0  24 0 0  24.25 0 0  24.5 0 0  24.75 0 0  25 0 0  0 0.25 0  0.25 0.25 0  0.5 0.25 0  0.75 0.25 0  1 0.25 0  1.25 0.25 0  1.5 0.25 0  1.75 0.25 0  2 0.25 0  2.25 0.25 0  2.5 0.25 0  2.75 0.25 0  3 0.25 0  3.25 0.25 0  3.5 0.25 0  3.75 0.25 0  4 0.25 0  4.25 0.25 0  4.5 0.25 0  4.75 0.25 0  5 0.25 0  5.25 0.25 0  5.5 0.25 0  5.75 0.25 0  6 0.25 0  6.25 0.25 0  6.5 0.25 0  6.75 0.25 0  7 0.25 0  7.25 0.25 0  7.5 0.25 0  7.75 0.25 0  8 0.25 0  8.25 0.25 0  8.5 0.25 0  8.75 0.25 0  9 0.25 0  9.25 0.25 0  9.5 0.25 0  9.75 0.25 0  10 0.25 0  10.25 0.25 0  10.5 0.25 0  10.75 0.25 0  11 0.25 0  11.25 0.25 0  11.5 0.25 0  11.75 0.25 0  12 0.25 0  12.25 0.25 0  12.5 0.25 0  12.75 0.25 0  13 0.25 0  13.25 0.25 0  13.5 0.25 0  13.75 0.25 0  14 0.25 0  14.25 0.25 0  14.5 0.25 0  14.75 0.25 0  15 0.25 0  15.25 0.25 0  15.5 0.25 0  15.75 0.25 0  16 0.25 0  16.25 0.25 0  16.5 0.25 0  16.75 0.25 0  17 0.25 0  17.25 0.25 0  17.5 0.25 0  17.75 0.25 0  18 0.25 0  18.25 0.25 0  18.5 0.25 0  18.75 0.25 0  19 0.25 0  19.25 0.25 0  19.5 0.25 0  19.75 0.25 0  20 0.25 0  20.25 0.25 0  20.5 0.25 0  20.75 0.25 0  21 0.25 0  21.25 0.25 0  21.5 0.25 0  21.75 0.25 0  22 0.25 0  22.25 0.25 0  22.5 0.25 0  22.75 0.25 0  23 0.25 0  23.25 0.25 0  23.5 0.25 0  23.75 0.25 0  24 0.25 0  24.25 0.25 0  24.5 0.25 0  24.75 0.25 0  25 0.25 0  0 0.5 0  0.25 0.5 0  0.5 0.5 0  0.75 0.5 0  1 0.5 0  1.25 0.5 0  1.5 0.5 0  1.75 0.5 0  2 0.5 0  2.25 0.5 0  2.5 0.5 0  2.75 0.5 0  3 0.5 0  3.25 0.5 0  3.5 0.5 0  3.75 0.5 0  4 0.5 0  4.25 0.5 0  4.5 0.5 0  4.75 0.5 0  5 0.5 0  5.25 0.5 0  5.5 0.5 0  5.75 0.5 0  6 0.5 0  6.25 0.5 0  6.5 0.5 0  6.75 0.5 0  7 0.5 0  7.25 0.5 0  7.5 0.5 0  7.75 0.5 0  8 0.5 0  8.25 0.5 0  8.5 0.5 0  8.75 0.5 0  9 0.5 0  9.25 0.5 0  9.5 0.5 0  9.75 0.5 0  10 0.5 0  10.25 0.5 0  10.5 0.5 0  10.75 0.5 0  11 0.5 0  11.25 0.5 0  11.5 0.5 0  11.75 0.5 0  12 0.5 0  12.25 0.5 0  12.5 0.5 0  12.75 0.5 0  13 0.5 0  13.25 0.5 0  13.5 0.5 0  13.75 0.5 0  14 0.5 0  14.25 0.5 0  14.5 0.5 0  14.75 0.5 0  15 0.5 0  15.25 0.5 0  15.5 0.5 0  15.75 0.5 0  16 0.5 0  16.25 0.5 0  16.5 0.5 0  16.75 0.5 0  17 0.5 0  17.25 0.5 0  17.5 0.5 0  17.75 0.5 0  18 0.5 0  18.25 0.5 0  18.5 0.5 0  18.75 0.5 0  19 0.5 0  19.25 0.5 0  19.5 0.5 0  19.75 0.5 0  20 0.5 0  20.25 0.5 0  20.5 0.5 0  20.75 0.5 0  21 0.5 0  21.25 0.5 0  21.5 0.5 0  21.75 0.5 0  22 0.5 0  22.25 0.5 0  22.5 0.5 0  22.75 0.5 0  23 0.5 0  23.25 0.5 0  23.5 0.5 0  23.75 0.5 0  24 0.5 0  24.25 0.5 0  24.5 0.5 0  24.75 0.5 0  25 0.5 0  0 0.75 0  0.25 0.75 0  0.5 0.75 0  0.75 0.75 0  1 0.75 0  1.25 0.75 0  1.5 0.75 0  1.75 0.75 0  2 0.75 0  2.25 0.75 0  2.5 0.75 0  2.75 0.75 0  3 0.75 0  3.25 0.75 0  3.5 0.75 0  3.75 0.75 0  4 0.75 0  4.25 0.75 0  4.5 0.75 0  4.75 0.75 0  5 0.75 0  5.25 0.75 0  5.5 0.75 0  5.75 0.75 0  6 0.75 0  6.25 0.75 0  6.5 0.75 0  6.75 0.75 0  7 0.75 0  7.25 0.75 0  7.5 0.75 0  7.75 0.75 0  8 0.75 0  8.25 0.75 0  8.5 0.75 0  8.75 0.75 0  9 0.75 0  9.25 0.75 0  9.5 0.75 0  9.75 0.75 0  10 0.75 0  10.25 0.75 0  10.5 0.75 0  10.75 0.75 0  11 0.75 0  11.25 0.75 0  11.5 0.75 0  11.75 0.75 0  12 0.75 0  12.25 0.75 0  12.5 0.75 0  12.75 0.75 0  13 0.75 0  13.25 0.75 0  13.5 0.75 0  13.75 0.75 0  14 0.75 0  14.25 0.75 0  14.5 0.75 0  14.75 0.75 0  15 0.75 0  15.25 0.75 0  15.5 0.75 0  15.75 0.75 0  16 0.75 0  16.25 0.75 0  16.5 0.75 0  16.75 0.75 0  17 0.75 0  17.25 0.75 0  17.5 0.75 0  17.75 0.75 0  18 0.75 0  18.25 0.75 0  18.5 0.75 0  18.75 0.75 0  19 0.75 0  19.25 0.75 0  19.5 0.75 0  19.75 0.75 0  20 0.75 0  20.25 0.75 0  20.5 0.75 0  20.75 0.75 0  21 0.75 0  21.25 0.75 0  21.5 0.75 0  21.75 0.75 0  22 0.75 0  22.25 0.75 0  22.5 0.75 0  22.75 0.75 0  23 0.75 0  23.25 0.75 0  23.5 0.75 0  23.75 0.75 0  24 0.75 0  24.25 0.75 0  24.5 0.75 0  24.75 0.75 0  25 0.75 0  0 1 0  0.25 1 0  0.5 1 0  0.75 1 0  1 1 0  1.25 1 0  1.5 1 0  1.75 1 0  2 1 0  2.25 1 0  2.5 1 0  2.75 1 0  3 1 0  3.25 1 0  3.5 1 0  3.75 1 0  4 1 0  4.25 1 0  4.5 1 0  4.75 1 0  5 1 0  5.25 1 0  5.5 1 0  5.75 1 0  6 1 0  6.25 1 0  6.5 1 0  6.75 1 0  7 1 0  7.25 1 0  7.5 1 0  7.75 1 0  8 1 0  8.25 1 0  8.5 1 0  8.75 1 0  9 1 0  9.25 1 0  9.5 1 0  9.75 1 0  10 1 0  10.25 1 0  10.5 1 0  10.75 1 0  11 1 0  11.25 1 0  11.5 1 0  11.75 1 0  12 1 0  12.25 1 0  12.5 1 0  12.75 1 0  13 1 0  13.25 1 0  13.5 1 0  13.75 1 0  14 1 0  14.25 1 0  14.5 1 0  14.75 1 0  15 1 0  15.25 1 0  15.5 1 0  15.75 1 0  16 1 0  16.25 1 0  16.5 1 0  16.75 1 0  17 1 0  17.25 1 0  17.5 1 0  17.75 1 0  18 1 0  18.25 1 0  18.5 1 0  18.75 1 0  19 1 0  19.25 1 0  19.5 1 0  19.75 1 0  20 1 0  20.25 1 0  20.5 1 0  20.75 1 0  21 1 0  21.25 1 0  21.5 1 0  21.75 1 0  22 1 0  22.25 1 0  22.5 1 0  22.75 1 0  23 1 0  23.25 1 0  23.5 1 0  23.75 1 0  24 1 0  24.25 1 0  24.5 1 0  24.75 1 0  25 1 0  0 1.25 0  0.25 1.25 0  0.5 1.25 0  0.75 1.25 0  1 1.25 0  1.25 1.25 0  1.5 1.25 0  1.75 1.25 0  2 1.25 0  2.25 1.25 0  2.5 1.25 0  2.75 1.25 0  3 1.25 0  3.25 1.25 0  3.5 1.25 0  3.75 1.25 0  4 1.25 0  4.25 1.25 0  4.5 1.25 0  4.75 1.25 0  5 1.25 0  5.25 1.25 0  5.5 1.25 0  5.75 1.25 0  6 1.25 0  6.25 1.25 0  6.5 1.25 0  6.75 1.25 0  7 1.25 0  7.25 1.25 0  7.5 1.25 0  7.75 1.25 0  8 1.25 0  8.25 1.25 0  8.5 1.25 0  8.75 1.25 0  9 1.25 0  9.25 1.25 0  9.5 1.25 0  9.75 1.25 0  10 1.25 0  10.25 1.25 0  10.5 1.25 0  10.75 1.25 0  11 1.25 0  11.25 1.25 0  11.5 1.25 0  11.75 1.25 0  12 1.25 0  12.25 1.25 0  12.5 1.25 0  12.75 1.25 0  13 1.25 0  13.25 1.25 0  13.5 1.25 0  13.75 1.25 0  14 1.25 0  14.25 1.25 0  14.5 1.25 0  14.75 1.25 0  15 1.25 0  15.25 1.25 0  15.5 1.25 0  15.75 1.25 0  16 1.25 0  16.25 1.25 0  16.5 1.25 0  16.75 1.25 0  17 1.25 0  17.25 1.25 0  17.5 1.25 0  17.75 1.25 0  18 1.25 0  18.25 1.25 0  18.5 1.25 0  18.75 1.25 0  19 1.25 0  19.25 1.25 0  19.5 1.25 0  19.75 1.25 0  20 1.25 0  20.25 1.25 0  20.5 1.25 0  20.75 1.25 0  21 1.25 0  21.25 1.25 0  21.5 1.25 0  21.75 1.25 0  22 1.25 0  22.25 1.25 0  22.5 1.25 0  22.75 1.25 0  23 1.25 0  23.25 1.25 0  23.5 1.25 0  23.75 1.25 0  24 1.25 0  24.25 1.25 0  24.5 1.25 0  24.75 1.25 0  25 1.25 0  0 1.5 0  0.25 1.5 0  0.5 1.5 0  0.75 1.5 0  1 1.5 0  1.25 1.5 0  1.5 1.5 0  1.75 1.5 0  2 1.5 0  2.25 1.5 0  2.5 1.5 0  2.75 1.5 0  3 1.5 0  3.25 1.5 0  3.5 1.5 0  3.75 1.5 0  4 1.5 0  4.25 1.5 0  4.5 1.5 0  4.75 1.5 0  5 1.5 0  5.25 1.5 0  5.5 1.5 0  5.75 1.5 0  6 1.5 0  6.25 1.5 0  6.5 1.5 0  6.75 1.5 0  7 1.5 0  7.25 1.5 0  7.5 1.5 0  7.75 1.5 0  8 1.5 0  8.25 1.5 0  8.5 1.5 0  8.75 1.5 0  9 1.5 0  9.25 1.5 0  9.5 1.5 0  9.75 1.5 0  10 1.5 0  10.25 1.5 0  10.5 1.5 0  10.75 1.5 0  11 1.5 0  11.25 1.5 0  11.5 1.5 0  11.75 1.5 0  12 1.5 0  12.25 1.5 0  12.5 1.5 0  12.75 1.5 0  13 1.5 0  13.25 1.5 0  13.5 1.5 0  13.75 1.5 0  14 1.5 0  14.25 1.5 0  14.5 1.5 0  14.75 1.5 0  15 1.5 0  15.25 1.5 0  15.5 1.5 0  15.75 1.5 0  16 1.5 0  16.25 1.5 0  16.5 1.5 0  16.75 1.5 0  17 1.5 0  17.25 1.5 0  17.5 1.5 0  17.75 1.5 0  18 1.5 0  18.25 1.5 0  18.5 1.5 0  18.75 1.5 0  19 1.5 0  19.25 1.5 0  19.5 1.5 0  19.75 1.5 0  20 1.5 0  20.25 1.5 0  20.5 1.5 0  20.75 1.5 0  21 1.5 0  21.25 1.5 0  21.5 1.5 0  21.75 1.5 0  22 1.5 0  22.25 1.5 0  22.5 1.5 0  22.75 1.5 0  23 1.5 0  23.25 1.5 0  23.5 1.5 0  23.75 1.5 0  24 1.5 0  24.25 1.5 0  24.5 1.5 0  24.75 1.5 0  25 1.5 0  0 1.75 0  0.25 1.75 0  0.5 1.75 0  0.75 1.75 0  1 1.75 0  1.25 1.75 0  1.5 1.75 0  1.75 1.75 0  2 1.75 0  2.25 1.75 0  2.5 1.75 0  2.75 1.75 0  3 1.75 0  3.25 1.75 0  3.5 1.75 0  3.75 1.75 0  4 1.75 0  4.25 1.75 0  4.5 1.75 0  4.75 1.75 0  5 1.75 0  5.25 1.75 0  5.5 1.75 0  5.75 1.75 0  6 1.75 0  6.25 1.75 0  6.5 1.75 0  6.75 1.75 0  7 1.75 0  7.25 1.75 0  7.5 1.75 0  7.75 1.75 0  8 1.75 0  8.25 1.75 0  8.5 1.75 0  8.75 1.75 0  9 1.75 0  9.25 1.75 0  9.5 1.75 0  9.75 1.75 0  10 1.75 0  10.25 1.75 0  10.5 1.75 0  10.75 1.75 0  11 1.75 0  11.25 1.75 0  11.5 1.75 0  11.75 1.75 0  12 1.75 0  12.25 1.75 0  12.5 1.75 0  12.75 1.75 0  13 1.75 0  13.25 1.75 0  13.5 1.75 0  13.75 1.75 0  14 1.75 0  14.25 1.75 0  14.5 1.75 0  14.75 1.75 0  15 1.75 0  15.25 1.75 0  15.5 1.75 0  15.75 1.75 0  16 1.75 0  16.25 1.75 0  16.5 1.75 0  16.75 1.75 0  17 1.75 0  17.25 1.75 0  17.5 1.75 0  17.75 1.75 0  18 1.75 0  18.25 1.75 0  18.5 1.75 0  18.75 1.75 0  19 1.75 0  19.25 1.75 0  19.5 1.75 0  19.75 1.75 0  20 1.75 0  20.25 1.75 0  20.5 1.75 0  20.75 1.75 0  21 1.75 0  21.25 1.75 0  21.5 1.75 0  21.75 1.75 0  22 1.75 0  22.25 1.75 0  22.5 1.75 0  22.75 1.75 0  23 1.75 0  23.25 1.75 0  23.5 1.75 0  23.75 1.75 0  24 1.75 0  24.25 1.75 0  24.5 1.75 0  24.75 1.75 0  25 1.75 0  0 2 0  0.25 2 0  0.5 2 0  0.75 2 0  1 2 0  1.25 2 0  1.5 2 0  1.75 2 0  2 2 0  2.25 2 0  2.5 2 0  2.75 2 0  3 2 0  3.25 2 0  3.5 2 0  3.75 2 0  4 2 0  4.25 2 0  4.5 2 0  4.75 2 0  5 2 0  5.25 2 0  5.5 2 0  5.75 2 0  6 2 0  6.25 2 0  6.5 2 0  6.75 2 0  7 2 0  7.25 2 0  7.5 2 0  7.75 2 0  8 2 0  8.25 2 0  8.5 2 0  8.75 2 0  9 2 0  9.25 2 0  9.5 2 0  9.75 2 0  10 2 0  10.25 2 0  10.5 2 0  10.75 2 0  11 2 0  11.25 2 0 
[...]
<PointData  Scalars="f_26"> 
<DataArray  type="Float64"  Name="f_26"  format="ascii">9.9995055806726896e-01  9.9994690472850789e-01  9.9993680141757291e-01  9.9991875211491443e-01  9.9989038789572326e-01  9.9984805928978315e-01  9.9978634307843617e-01  9.9969734092011442e-01  9.9956966679585191e-01  9.9938699108432127e-01  9.9912595581570407e-01  9.9875319805803164e-01  9.9822110916046980e-01  9.9746180574948196e-01  9.9637858012819036e-01  9.9483381773274326e-01  9.9263200464319712e-01  9.8949599827623980e-01  9.8503423343095686e-01  9.7869609904450028e-01  9.6971263461120627e-01  9.5702057678140218e-01  9.3917083576619398e-01  9.1422977815341178e-01  8.7969628270262379e-01  8.3248248867122154e-01  7.6904086665284088e-01  6.8575179805307607e-01  5.7967690457807564e-01  4.4967168238831640e-01  2.9759568275853104e-01  1.2904957285861349e-01  -4.7006375486449009e-02  -2.1995564486483307e-01  -3.7995277194218291e-01  -5.1997680021871995e-01  -6.3669502683229195e-01  -7.3009319596829325e-01  -8.0240878250316738e-01  -8.5697774737169197e-01  -8.9735527602866993e-01  -9.2679720042367431e-01  -9.4803469800487983e-01  -9.6323404013345415e-01  -9.7405032342751463e-01  -9.8171613132105051e-01  -9.8713325361426130e-01  -9.9095334190065054e-01  -9.9364321965788516e-01  -9.9553526722765584e-01  -9.9686512301213881e-01  -9.9779933310663382e-01  -9.9845535675464037e-01  -9.9891590755045656e-01  -9.9923916847613015e-01  -9.9946603550198465e-01  -9.9962523805104564e-01  -9.9973695066053447e-01  -9.9981533646262633e-01  -9.9987033643234013e-01  -9.9990892707210111e-01  -9.9993600395915239e-01  -9.9995500220600197e-01  -9.9996833204612612e-01  -9.9997768456778002e-01  -9.9998424627402149e-01  -9.9998884964208212e-01  -9.9999207876465102e-01  -9.9999434347001048e-01  -9.9999593132436526e-01  -9.9999704411555734e-01  -9.9999782344891341e-01  -9.9999836870441594e-01  -9.9999874963486979e-01  -9.9999901520445023e-01  -9.9999919978969543e-01  -9.9999932753012744e-01  -9.9999941538073889e-01  -9.9999947525376021e-01  -9.9999951552149202e-01  -9.9999954207086872e-01  -9.9999955904351501e-01  -9.9999956935513468e-01  -9.9999957506006798e-01  -9.9999957760720437e-01  -9.9999957801965822e-01  -9.9999957702094233e-01  -9.9999957512359161e-01  -9.9999957269143147e-01  -9.9999956998334405e-01  -9.9999956718404381e-01  -9.9999956442573068e-01  -9.9999956180333549e-01  -9.9999955938526497e-01  -9.9999955722098810e-01  -9.9999955534641582e-01  -9.9999955378777361e-01  -9.9999955256455675e-01  -9.9999955169235533e-01  -9.9999955118763906e-01  -9.9999955108285776e-01  9.9995002117699128e-01  9.9994671155553816e-01  9.9993664058592235e-01  9.9991853768645589e-01  9.9989007622801707e-01  9.9984760651326454e-01  9.9978569104970394e-01  9.9969640785902147e-01  9.9956833667443612e-01  9.9938509942369713e-01  9.9912327005424828e-01  9.9874939040524158e-01  9.9821571939253884e-01  9.9745419097636290e-01  9.9636784849743365e-01  9.9481874399541492e-01  9.9261092882503932e-01  9.8946671692272470e-01  9.8499391060448438e-01  9.7864125897353349e-01  9.6963936031375419e-01  9.5692513984661831e-01  9.3905111981591605e-01  9.1408798368336208e-01  8.7954335191379851e-01  8.3234410942872228e-01  7.6896329232244454e-01  6.8580288015094437e-01  5.7993512575336115e-01  4.5019791282675031e-01  2.9839373268457858e-01  1.3003885455027403e-01  -4.5978074013928519e-02  -2.1905580483813156e-01  -3.7929797372679525e-01  -5.1959945191979473e-01  -6.3655576867023733e-01  -7.3011809060536703e-01  -8.0252367267641000e-01  -8.5712650065990759e-01  -8.9750334191074177e-01  -9.2692744090257406e-01  -9.4814129203350606e-01  -9.6331734340277952e-01  -9.7411343284660257e-01  -9.8176292456216008e-01  -9.8716742686167702e-01  -9.9097802995603412e-01  -9.9366091645279631e-01  -9.9554788058939681e-01  -9.9687407561039088e-01  -9.9780566765358736e-01  -9.9845982836835090e-01  -9.9891905845614903e-01  -9.9924138566179743e-01  -9.9946759393937046e-01  -9.9962633248090671e-01  -9.9973771866499472e-01  -9.9981587506121461e-01  -9.9987071394251847e-01  -9.9990919154590530e-01  -9.9993618916375271e-01  -9.9995513185235407e-01  -9.9996842277311571e-01  -9.9997774804498396e-01  -9.9998429068167360e-01  -9.9998888071172809e-01  -9.9999210051033327e-01  -9.9999435870168496e-01  -9.9999594200820507e-01  -9.9999705162668351e-01  -9.9999782874859089e-01  -9.9999837246423828e-01  -9.9999875232376023e-01  -9.9999901714958839e-01  -9.9999920121916996e-01  -9.9999932860278495e-01  -9.9999941620706467e-01  -9.9999947591048177e-01  -9.9999951606178783e-01  -9.9999954253150303e-01  -9.9999955944982255e-01  -9.9999956972450232e-01  -9.9999957540436535e-01  -9.9999957793448102e-01  -9.9999957833532727e-01  -9.9999957732860589e-01  -9.9999957542561624e-01  -9.9999957298934827e-01  -9.9999957027812625e-01  -9.9999956747629815e-01  -9.9999956471582829e-01  -9.9999956209149843e-01  -9.9999955967161924e-01  -9.9999955750558733e-01  -9.9999955562922682e-01  -9.9999955406858265e-01  -9.9999955284262787e-01  -9.9999955196513213e-01  -9.9999955144529540e-01  -9.9999955128342899e-01  9.9994979991580379e-01  9.9994656767987888e-01  9.9993652228910379e-01  9.9991840185420244e-01  9.9988989291539421e-01  9.9984734853524471e-01  9.9978532662440756e-01  9.9969589530078928e-01  9.9956761939167749e-01  9.9938410020775748e-01  9.9912188411266856e-01  9.9874747691804167e-01  9.9821309180516637e-01  9.9745060707287581e-01  9.9636300294556301e-01  9.9481226922716326e-01  9.9260241598961274e-01  9.8945577909496119e-01  9.8498032817292791e-01  9.7862527547656408e-01  9.6962223826808347e-01  9.5691013690383431e-01  9.3904508556804089e-01  9.1410374859002685e-01  8.7960285940562766e-01  8.3248163842822764e-01  7.6922697195242773e-01  6.8625123257240961e-01  5.8062477865054285e-01  4.5116124642090050e-01  2.9961274847007052e-01  1.3143061950904278e-01  -4.4548588431283592e-02  -2.1773519939031091e-01  -3.7819737863143998e-01  -5.1876761281170780e-01  -6.3598225571888178e-01  -7.2975603536221034e-01  -8.0231485338842767e-01  -8.5701820629955561e-01  -8.9745543097812996e-01  -9.2691274214746766e-01  -9.4814301647993804e-01  -9.6332591525800992e-01  -9.7412382510368234e-01  -9.8177276765762911e-01  -9.8717579816297174e-01  -9.9098473490822392e-01  -9.9366608773321141e-01  -9.9555176823690017e-01  -9.9687694537838278e-01  -9.9780775751672968e-01  -9.9846133449257835e-01  -9.9892013493956966e-01  -9.9924214985860593e-01  -9.9946813333462725e-01  -9.9962671129657188e-01  -9.9973798350468090e-01  -9.9981605944200003e-01  -9.9987084179743180e-01  -9.9990927986343581e-01  -9.9993624994209018e-01  -9.9995517352759977e-01  -9.9996845125280609e-01  -9.9997776745022759e-01  -9.9998430387672699e-01  -9.9998888967992383e-01  -9.9999210661974880e-01  -9.9999436289214994e-01  -9.9999594492246779e-01  -9.9999705370210190e-01  -9.9999783028102396e-01  -9.9999837365242628e-01  -9.9999875330005406e-01  -9.9999901800115931e-01  -9.9999920200259873e-01  -9.9999932935406233e-01  -9.9999941694842098e-01  -9.9999947665503186e-01  -9.9999951681667643e-01  -9.9999954330002561e-01  -9.9999956023284720e-01  -9.9999957052141786e-01  -9.9999957621370961e-01  -9.9999957875435408e-01  -9.9999957916366000e-01  -9.9999957816333318e-01  -9.9999957626478508e-01  -9.9999957383118354e-01  -9.9999957112106708e-01  -9.9999956831901371e-01  -9.9999956555721803e-01  -9.9999956293067860e-01  -9.9999956050789474e-01  -9.9999955833840093e-01  -9.9999955645806959e-01  -9.9999955489282200e-01  -9.9999955366115933e-01  -9.9999955277569141e-01  -9.9999955224350590e-01  -9.9999955206483104e-01  9.9994971663031973e-01  9.9994650527013329e-01  9.9993647657453399e-01  9.9991836044425242e-01  9.9988984617326315e-01  9.9984729037839193e-01  9.9978525370112992e-01  9.9969580686993198e-01  9.9956751845933189e-01  9.9938399635873654e-01  9.9912179888084141e-01  9.9874745325076941e-01  9.9821321030074406e-01  9.9745101347283760e-01  9.9636395427276847e-01  9.9481421061657782e-01  9.9260610757109236e-01  9.8946250341694175e-01  9.8499222475795700e-01  9.7864587045741880e-01  9.6965726088233595e-01  9.5696873038017627e-01  9.3914150084690617e-01  9.1425950058953687e-01  8.7984903682055293e-01  8.3286048574814631e-01  7.6979099590379441e-01  6.8705725544823104e-01  5.8172055559890512e-01  4.5256501593342918e-01  3.0129201795626509e-01  1.3329256804847445e-01  -4.2643613133045766e-02  -2.1593788781353435e-01  -3.7662813333187961e-01  -5.1749075506828635e-01  -6.3500488848246639e-01  -7.2904486168077942e-01  -8.0181778797031922e-01  -8.5668127124439142e-01  -8.9723205202650624e-01  -9.2676685555300775e-01  -9.4804860100853738e-01  -9.6326507127736571e-01  -9.7408463231985787e-01  -9.8174745652006346e-01  -9.8715937229210038e-01  -9.9097400512421585e-01  -9.9365902426459063e-01  -9.9554707848251212e-01  -9.9687380354873900e-01  -9.9780563332295102e-01  -9.9845988515300854e-01  -9.9891913718594305e-01  -9.9924145705550771e-01  -9.9946764833357338e-01  -9.9962636915800540e-01  -9.9973774042839669e-01  -9.9981588562258050e-01  -9.9987071677615635e-01  -9.9990918947907614e-01  -9.9993618431346232e-01  -9.9995512570721301e-01  -9.9996841632061673e-01  -9.9997774189843247e-01  -9.9998428518864224e-01  -9.9998887603938236e-01  -9.9999209670899847e-01  -9.9999435575025086e-01  -9.9999593984537671e-01  -9.9999705017170204e-01  -9.9999782791440250e-01  -9.9999837216541521e-01  -9.9999875248088588e-01  -9.9999901769134203e-01  -9.9999920208297244e-01  -9.9999932973459538e-01  -9.9999941756071964e-01  -9.9999947744682594e-01  -9.9999951774775242e-01  -9.9999954433922011e-01  -9.9999956135582302e-01  -9.9999957170901699e-01  -9.9999957745073320e-01  -9.9999958002865774e-01  -9.9999958046548321e-01  -9.9999957948480034e-01  -9.9999957759953428e-01  -9.9999957517408766e-01  -9.9999957246802162e-01  -9.9999956966677250e-01  -9.9999956690326042e-01  -9.9999956427309722e-01  -9.9999956184529082e-01  -9.9999955966977783e-01  -9.9999955778271010e-01  -9.9999955621013581e-01  -9.9999955497049942e-01  -9.9999955407622010e-01  -9.9999955353451475e-01  -9.9999955334779544e-01  9.9994972358760892e-01  9.9994652242574633e-01  9.9993651301145237e-01  9.9991842214608617e-01  9.9988994217879623e-01  9.9984743647680396e-01  9.9978547574991006e-01  9.9969614540652441e-01  9.9956803587878595e-01  9.9938478809314391e-01  9.9912301064757469e-01  9.9874930753053193e-01  9.9821604690580445e-01  9.9745535164563603e-01  9.9637058762642094e-01  9.9482435194547048e-01  9.9262160878229566e-01  9.8948618715988146e-01  9.8502837881210459e-01  9.7870097193719274e-01  9.6974100913451289e-01  9.5709546097287457e-01  9.3933199903653963e-01  9.1454307935633694e-01  8.8026541807595338e-01  8.3346045836653648e-01  7.7063406748106067e-01  6.8820393555122705e-01  5.8321742707998458e-01  4.5442365033019239e-01  3.0346837693423218e-01  1.3567882635647008e-01  -4.0204272218168392e-02  -2.1361465267646781e-01  -3.7456016925551033e-01  -5.1575934709754578e-01  -6.3362969095455524e-01  -7.2799889267250739e-01  -8.0104891100489306e-01  -8.5613047160398992e-01  -8.9684477911940907e-01  -9.2649803897228877e-01  -9.4786354059133759e-01  -9.6313826774957156e-01  -9.7399792335079394e-01  -9.8168817060126223e-01  -9.8711878546376730e-01  -9.9094615903925010e-01  -9.9363986653212000e-01  -9.9553385714813525e-01  -9.9686464907319228e-01  -9.9779927352396902e-01  -9.9845545216830578e-01  -9.9891603718264432e-01  -9.9923928235785997e-01  -9.9946611810177632e-01  -9.9962528925655869e-01  -9.9973697619888779e-01  -9.9981534335061817e-01  -9.9987033103185496e-01  -9.9990891443849761e-01  -9.9993598778781934e-01  -9.9995498502057978e-01  -9.9996831545418663e-01  -9.9997766950571054e-01  -9.9998423321162444e-01  -9.9998883874084266e-01  -9.9999206999380830e-01  -9.9999433668808679e-01  -9.9999592633416212e-01  -9.9999704069967843e-01  -9.9999782139151117e-01  -9.9999836780351337e-01  -9.9999874970845937e-01  -9.9999901609264541e-01  -9.9999920135450915e-01  -9.9999932965393423e-01  -9.9999941796410918e-01  -9.9999947821309609e-01  -9.9999951878671811e-01  -9.9999954558331761e-01  -9.9999956275406843e-01  -9.9999957322263877e-01  -9.9999957905001080e-01  -9.9999958169063163e-01  -9.9999958217229457e-01  -9.9999958122248478e-01  -9.9999957935714334e-01  -9.9999957694304631e-01  -9.9999957424165387e-01  -9.9999957143994644e-01  -9.9999956867211703e-01  -9.9999956603483453e-01  -9.9999956359798503e-01  -9.9999956141222512e-01  -9.9999955951428032e-01  -9.9999955793063677e-01  -9.9999955668007623e-01  -9.9999955577536648e-01  -9.9999955522437034e-01  -9.9999955503089666e-01  9.9994980623558893e-01  9.9994661549427499e-01  9.9993663438735947e-01  9.9991859136617367e-01  9.9989018509212391e-01  9.9984779039928262e-01  9.9978599580879446e-01  9.9969691337120459e-01  9.9956917310382820e-01  9.9938647475115472e-01  9.9912551437640207e-01  9.9875302609842409e-01  9.9822157171113723e-01  9.9746356211254317e-01  9.9638279123694717e-01  9.9484249125155755e-01  9.9264856575131399e-01  9.8952622684695724e-01  9.8508778796846241e-01  9.7878896093903012e-01  9.6987095009650248e-01  9.5728651475625026e-01  9.3961110771745315e-01  9.1494711631056924e-01  8.8084292494393457e-01  8.3427180298236403e-01  7.7174809837651026e-01  6.8968868920097171e-01  5.8512311919816451e-01  4.5675934931222678e-01  3.0617966993902351e-01  1.3863929539011854e-01  -3.7176506729698619e-02  -2.1071649669293982e-01  -3.7195633508573500e-01  -5.1355033953418283e-01  -6.3184591861176775e-01  -7.2661584874144847e-01  -8.0001049484751374e-01  -8.5536972578358550e-01  -8.9629748813019494e-01  -9.2610939277158077e-01  -9.4759000739918942e-01  -9.6294687106143739e-01  -9.7386446666091020e-01  -9.8159527949501979e-01  -9.8705416417220815e-01  -9.9090118855205667e-01  -9.9360854123692155e-01  -9.9551200686923702e-01  -9.9684938294019632e-01  -9.9778858831744077e-01  -9.9844795910689577e-01  -9.9891077243246773e-01  -9.9923557602966151e-01  -9.9946350381182170e-01  -9.9962344170282080e-01  -9.9973566804611425e-01  -9.9981441541554972e-01  -9.9986967163329299e-01  -9.9990844506933940e-01  -9.9993565315451782e-01  -9.9995474610506585e-01  -9.9996814467147987e-01  -9.9997754731750843e-01  -9.9998414575347117e-01  -9.9998877615631665e-01  -9.9999202526286657e-01  -9.9999430480145879e-01  -9.9999590371053926e-01  -9.9999702477357089e-01  -9.9999781032128798e-01  -9.9999836026422917e-01  -9.9999874474459949e-01  -9.9999901301328908e-01  -9.9999919965857331e-01  -9.9999932897678534e-01  -9.9999941803937875e-01  -9.9999947884533191e-01  -9.9999951983177149e-01  -9.9999954693426085e-01  -9.9999956433107307e-01  -9.9999957496569281e-01  -9.9999958091367547e-01  -9.9999958364026165e-01  -9.9999958418131252e-01  -9.9999958327041161e-01  -9.9999958142817269e-01  -9.9999957902500825e-01  -9.9999957632525682e-01  -9.9999957351821611e-01  -9.9999957073997414e-01  -9.9999956808876889e-01  -9.9999956563579495e-01  -9.9999956343280183e-01  -9.9999956151742508e-01  -9.9999955991691025e-01  -9.9999955865069268e-01  -9.9999955773216753e-01  -9.9999955716990974e-01  -9.9999955696857457e-01  9.9994995981025758e-01  9.9994678262510650e-01  9.9993684177850184e-01  9.9991887062146423e-01  9.9989057787290203e-01  9.9984835513822212e-01  9.9978681675477843e-01  9.9969811335023473e-01  9.9957093199125369e-01  9.9938905648902554e-01  9.9912930661991528e-01  9.9875859842614045e-01  9.9822976102815075e-01  9.9747559773855332e-01  9.9640047761225903e-01  9.9486847367385112e-01  9.9268671446179713e-01  9.8958218711601920e-01  9.8516975750302171e-01  9.7890876736088417e-01  9.7004550169323134e-01  9.5753966884851993e-01  9.3997590851186008e-01  9.1546814174194346e-01  8.8157807511425834e-01  8.3529220577235586e-01  7.7313397967198250e-01  6.9151849987494907e-01  5.8745398209393584e-01  4.5960042752638680e-01  3.0946667247218257e-01  1.4222456876771516e-01  -3.3505441857715888e-02  -2.0719094839648344e-01  -3.6877205419572423e-01  -5.1082979392547345e-01  -6.2963018374524782e-01  -7.2488097398354479e-01  -7.9869389077200093e-01  -8.5439421848513764e-01  -8.9558753171127947e-01  -9.2559938691878263e-01  -9.4722700501010204e-01  -9.6269013207461906e-01  -9.7368363850890127e-01  -9.8146824192501914e-01  -9.8696503825780124e-01  -9.9083869216920706e-01  -9.9356471305231775e-01  -9.9548125361536477e-01  -9.9682778549994833e-01  -9.9777340451121521e-01  -9.9843727125974424e-01  -9.9890323932664593e-01  -9.9923025910739904e-01  -9.9945974572773799e-01  -9.9962078157623646e-01  -9.9973378235246568e-01  -9.9981307675473430e-01  -9.9986871995180027e-01  -9.9990776755707822e-01  -9.9993517018639566e-01  -9.9995440139787828e-01  -9.9996789838327416e-01  -9.9997737120330044e-01  -9.9998401975985551e-01  -9.9998868602424817e-01  -9.9999196083778130e-01  -9.9999425884035520e-01  -9.9999587103869658e-01  -9.9999700168759531e-01  -9.9999779416594681e-01  -9.9999834913206287e-01  -9.9999873726239707e-01  -9.9999900819010124e-01  -9.9999919677738436e-01  -9.9999932751720155e-01  -9.9999941762238209e-01  -9.9999947919375487e-01  -9.9999952074198695e-01  -9.9999954825588322e-01  -9.9999956595239015e-01  -9.9999957680320228e-01  -9.9999958290456259e-01  -9.9999958573698911e-01  -9.9999958634772401e-01  -9.9999958547892376e-01  -9.9999958365774666e-01  -9.9999958125967914e-01  -9.9999957855306199e-01  -9.9999957573040599e-01  -9.9999957293042219e-01  -9.9999957025352149e-01  -9.9999956777271748e-01  -9.9999956554129255e-01  -9.9999956359817754e-01  -9.9999956197171647e-01  -9.9999956068228646e-01  -9.9999955974411159e-01  -9.9999955916651451e-01  -9.9999955895478521e-01  9.9995018295189786e-01  9.9994702336806185e-01  9.9993713606638090e-01  9.9991926177232315e-01  9.9989112296247984e-01  9.9984913348917015e-01  9.9978794162877505e-01  9.9969974851202370e-01  9.9957331556298290e-01  9.9939253556762142e-01  9.9913438765731610e-01  9.9876602058220409e-01  9.9824060287309357e-01  9.9749143216105385e-01  9.9642359601545605e-01  9.9490220898224646e-01  9.9273590347298757e-01  9.8965382619866471e-01  9.8527392020753113e-01  9.7905986400641254e-01  9.7026395954246436e-01  9.5785407656002419e-01  9.4042556191939131e-01  9.1610568683294114e-01  8.8247148450281099e-01  8.3652458300158061e-01  7.7479874602364673e-01  6.9370687480904203e-01  5.9023250919786463e-01  4.6298027699476552e-01  3.1337399368215635e-01  1.4648843852915963e-01  -2.9132425330696925e-02  -2.0297999288026133e-01  -3.6495494640011911e-01  -5.0755413301538299e-01  -6.2694866988168829e-01  -7.2276943897498791e-01  -7.9708157973104399e-01  -8.5319188012173452e-01  -8.9470666469948923e-01  -9.2496236098607953e-01  -9.4677058994054430e-01  -9.6236524888815411e-01  -9.7345340802766123e-01  -9.8130556096618737e-01  -9.8685029096827415e-01  -9.9075783065920842e-01  -9.9350774918377094e-01  -9.9544112000823326e-01  -9.9679949709902349e-01  -9.9775345178745745e-01  -9.9842318603322300e-01  -9.9889328647781728e-01  -9.9922321878903331e-01  -9.9945476001664302e-01  -9.9961724671598284e-01  -9.9973127311665211e-01  -9.9981129338046404e-01  -9.9986745090795193e-01  -9.9990686341331370e-01  -9.9993452526245319e-01  -9.9995394086688538e-01  -9.9996756920012120e-01  -9.9997713571742464e-01  -9.9998385121345446e-01  -9.9998856537595493e-01  -9.9999187451906035e-01  -9.9999419716892923e-01  -9.9999582709529911e-01  -9.9999697051981462e-01  -9.9999777222324293e-01  -9.9999833386435844e-01  -9.9999872683454183e-01  -9.9999900127851993e-01  -9.9999919242508251e-01  -9.9999932503026090e-01  -9.9999941649599100e-01  -9.9999947905928777e-01  -9.9999952132910463e-01  -9.9999954936536561e-01  -9.9999956743664564e-01  -9.9999957855227362e-01  -9.9999958483607321e-01  -9.9999958778891496e-01  -9.9999958847319337e-01  -9.9999958764247177e-01  -9.9999958583261206e-01  -9.9999958342584772e-01  -9.9999958069584205e-01  -9.9999957783938187e-01  -9.9999957499867453e-01  -9.9999957227703395e-01  -9.9999956974991355e-01  -9.9999956747266139e-01  -9.9999956548596280e-01  -9.9999956381965094e-01  -9.9999956249536137e-01  -9.9999956152836977e-01  -9.9999956092885012e-