<?xml version="1.0"?>
<VTKFile type="UnstructuredGrid"  version="0.1"  >
<UnstructuredGrid>
<Piece  NumberOfPoints="10201" NumberOfCells="20000">
<Points>
<DataArray  type="Float64"  NumberOfComponents="3"  format="ascii">0 0 0  0.25 0 0  0.5 0 0  0.75 0 0  1 0 0  1.25 0 0  1.5 0 0  1.75 0 0  2 0 0  2.25 0 0  2.5 0 0  2.75 0 0  3 0 0  3.25 0 0  3.5 0 0  3.75 0 0  4 0 0  4.25 0 0  4.5 0 0  4.75 0 0  5 0 0  5.25 0 0  5.5 0 0  5.75 0 0  6 0 0  6.25 0 0  6.5 0 0  6.75 0 0  7 0 0  7.25 0 0  7.5 0 0  7.75 0 0  8 0 0  8.25 0 0  8.5 0 0  8.75 0 0  9 0 0  9.25 0 0  9.5 0 0  9.75 0 0  10 0 0  10.25 0 0  10.5 0 0  10.75 0 0  11 0 0  11.25 0 0  11.5 0 0  11.75 0 0  12 0 0  12.25 0 0  12.5 0 0  12.75 0 0  13 0 0  13.25 0 0  13.5 0 0  13.75 0 0  14 0 0  14.25 0 0  14.5 0 0  14.75 0 0  15 0 0  15.25 0 0  15.5 0 0  15.75 0 0  16 0 0  16.25 0 0  16.5 0 0  16.75 0 0  17 0 0  17.25 0 0  17.5 0 0  17.75 0 0  18 0 0  18.25 0 0  18.5 0 0  18.75 0 0  19 0 0  19.25 0 0  19.5 0 0  19.75 0 0  20 0 0  20.25 0 0  20.5 0 0  20.75 0 0  21 0 0  21.25 0 0  21.5 0 0  21.75 0 0  22 0 0  22.25 0 0  22.5 0 0  22.75 0 0  23 0 0  23.25 0 0  23.5 0 0  23.75 0 0  24 0 0  24.25 0 0  24.5 0 0  24.75 0 0  25 0 0  0 0.25 0  0.25 0.25 0  0.5 0.25 0  0.75 0.25 0  1 0.25 0  1.25 0.25 0  1.5 0.25 0  1.75 0.25 0  2 0.25 0  2.25 0.25 0  2.5 0.25 0  2.75 0.25 0  3 0.25 0  3.25 0.25 0  3.5 0.25 0  3.75 0.25 0  4 0.25 0  4.25 0.25 0  4.5 0.25 0  4.75 0.25 0  5 0.25 0  5.25 0.25 0  5.5 0.25 0  5.75 0.25 0  6 0.25 0  6.25 0.25 0  6.5 0.25 0  6.75 0.25 0  7 0.25 0  7.25 0.25 0  7.5 0.25 0  7.75 0.25 0  8 0.25 0  8.25 0.25 0  8.5 0.25 0  8.75 0.25 0  9 0.25 0  9.25 0.25 0  9.5 0.25 0  9.75 0.25 0  10 0.25 0  10.25 0.25 0  10.5 0.25 0  10.75 0.25 0  11 0.25 0  11.25 0.25 0  11.5 0.25 0  11.75 0.25 0  12 0.25 0  12.25 0.25 0  12.5 0.25 0  12.75 0.25 0  13 0.25 0  13.25 0.25 0  13.5 0.25 0  13.75 0.25 0  14 0.25 0  14.25 0.25 0  14.5 0.25 0  14.75 0.25 0  15 0.25 0  15.25 0.25 0  15.5 0.25 0  15.75 0.25 0  16 0.25 0  16.25 0.25 0  16.5 0.25 0  16.75 0.25 0  17 0.25 0  17.25 0.25 0  17.5 0.25 0  17.75 0.25 0  18 0.25 0  18.25 0.25 0  18.5 0.25 0  18.75 0.25 0  19 0.25 0  19.25 0.25 0  19.5 0.25 0  19.75 0.25 0  20 0.25 0  20.25 0.25 0  20.5 0.25 0  20.75 0.25 0  21 0.25 0  21.25 0.25 0  21.5 0.25 0  21.75 0.25 0  22 0.25 0  22.25 0.25 0  22.5 0.25 0  22.75 0.25 0  23 0.25 0  23.25 0.25 0  23.5 0.25 0  23.75 0.25 0  24 0.25 0  24.25 0.25 0  24.5 0.25 0  24.75 0.25 0  25 0.25 0  0 0.5 0  0.25 0.5 0  0.5 0.5 0  0.75 0.5 0  1 0.5 0  1.25 0.5 0  1.5 0.5 0  1.75 0.5 0  2 0.5 0  2.25 0.5 0  2.5 0.5 0  2.75 0.5 0  3 0.5 0  3.25 0.5 0  3.5 0.5 0  3.75 0.5 0  4 0.5 0  4.25 0.5 0  4.5 0.5 0  4.75 0.5 0  5 0.5 0  5.25 0.5 0  5.5 0.5 0  5.75 0.5 0  6 0.5 0  6.25 0.5 0  6.5 0.5 0  6.75 0.5 0  7 0.5 0  7.25 0.5 0  7.5 0.5 0  7.75 0.5 0  8 0.5 0  8.25 0.5 0  8.5 0.5 0  8.75 0.5 0  9 0.5 0  9.25 0.5 0  9.5 0.5 0  9.75 0.5 0  10 0.5 0  10.25 0.5 0  10.5 0.5 0  10.75 0.5 0  11 0.5 0  11.25 0.5 0  11.5 0.5 0  11.75 0.5 0  12 0.5 0  12.25 0.5 0  12.5 0.5 0  12.75 0.5 0  13 0.5 0  13.25 0.5 0  13.5 0.5 0  13.75 0.5 0  14 0.5 0  14.25 0.5 0  14.5 0.5 0  14.75 0.5 0  15 0.5 0  15.25 0.5 0  15.5 0.5 0  15.75 0.5 0  16 0.5 0  16.25 0.5 0  16.5 0.5 0  16.75 0.5 0  17 0.5 0  17.25 0.5 0  17.5 0.5 0  17.75 0.5 0  18 0.5 0  18.25 0.5 0  18.5 0.5 0  18.75 0.5 0  19 0.5 0  19.25 0.5 0  19.5 0.5 0  19.75 0.5 0  20 0.5 0  20.25 0.5 0  20.5 0.5 0  20.75 0.5 0  21 0.5 0  21.25 0.5 0  21.5 0.5 0  21.75 0.5 0  22 0.5 0  22.25 0.5 0  22.5 0.5 0  22.75 0.5 0  23 0.5 0  23.25 0.5 0  23.5 0.5 0  23.75 0.5 0  24 0.5 0  24.25 0.5 0  24.5 0.5 0  24.75 0.5 0  25 0.5 0  0 0.75 0  0.25 0.75 0  0.5 0.75 0  0.75 0.75 0  1 0.75 0  1.25 0.75 0  1.5 0.75 0  1.75 0.75 0  2 0.75 0  2.25 0.75 0  2.5 0.75 0  2.75 0.75 0  3 0.75 0  3.25 0.75 0  3.5 0.75 0  3.75 0.75 0  4 0.75 0  4.25 0.75 0  4.5 0.75 0  4.75 0.75 0  5 0.75 0  5.25 0.75 0  5.5 0.75 0  5.75 0.75 0  6 0.75 0  6.25 0.75 0  6.5 0.75 0  6.75 0.75 0  7 0.75 0  7.25 0.75 0  7.5 0.75 0  7.75 0.75 0  8 0.75 0  8.25 0.75 0  8.5 0.75 0  8.75 0.75 0  9 0.75 0  9.25 0.75 0  9.5 0.75 0  9.75 0.75 0  10 0.75 0  10.25 0.75 0  10.5 0.75 0  10.75 0.75 0  11 0.75 0  11.25 0.75 0  11.5 0.75 0  11.75 0.75 0  12 0.75 0  12.25 0.75 0  12.5 0.75 0  12.75 0.75 0  13 0.75 0  13.25 0.75 0  13.5 0.75 0  13.75 0.75 0  14 0.75 0  14.25 0.75 0  14.5 0.75 0  14.75 0.75 0  15 0.75 0  15.25 0.75 0  15.5 0.75 0  15.75 0.75 0  16 0.75 0  16.25 0.75 0  16.5 0.75 0  16.75 0.75 0  17 0.75 0  17.25 0.75 0  17.5 0.75 0  17.75 0.75 0  18 0.75 0  18.25 0.75 0  18.5 0.75 0  18.75 0.75 0  19 0.75 0  19.25 0.75 0  19.5 0.75 0  19.75 0.75 0  20 0.75 0  20.25 0.75 0  20.5 0.75 0  20.75 0.75 0  21 0.75 0  21.25 0.75 0  21.5 0.75 0  21.75 0.75 0  22 0.75 0  22.25 0.75 0  22.5 0.75 0  22.75 0.75 0  23 0.75 0  23.25 0.75 0  23.5 0.75 0  23.75 0.75 0  24 0.75 0  24.25 0.75 0  24.5 0.75 0  24.75 0.75 0  25 0.75 0  0 1 0  0.25 1 0  0.5 1 0  0.75 1 0  1 1 0  1.25 1 0  1.5 1 0  1.75 1 0  2 1 0  2.25 1 0  2.5 1 0  2.75 1 0  3 1 0  3.25 1 0  3.5 1 0  3.75 1 0  4 1 0  4.25 1 0  4.5 1 0  4.75 1 0  5 1 0  5.25 1 0  5.5 1 0  5.75 1 0  6 1 0  6.25 1 0  6.5 1 0  6.75 1 0  7 1 0  7.25 1 0  7.5 1 0  7.75 1 0  8 1 0  8.25 1 0  8.5 1 0  8.75 1 0  9 1 0  9.25 1 0  9.5 1 0  9.75 1 0  10 1 0  10.25 1 0  10.5 1 0  10.75 1 0  11 1 0  11.25 1 0  11.5 1 0  11.75 1 0  12 1 0  12.25 1 0  12.5 1 0  12.75 1 0  13 1 0  13.25 1 0  13.5 1 0  13.75 1 0  14 1 0  14.25 1 0  14.5 1 0  14.75 1 0  15 1 0  15.25 1 0  15.5 1 0  15.75 1 0  16 1 0  16.25 1 0  16.5 1 0  16.75 1 0  17 1 0  17.25 1 0  17.5 1 0  17.75 1 0  18 1 0  18.25 1 0  18.5 1 0  18.75 1 0  19 1 0  19.25 1 0  19.5 1 0  19.75 1 0  20 1 0  20.25 1 0  20.5 1 0  20.75 1 0  21 1 0  21.25 1 0  21.5 1 0  21.75 1 0  22 1 0  22.25 1 0  22.5 1 0  22.75 1 0  23 1 0  23.25 1 0  23.5 1 0  23.75 1 0  24 1 0  24.25 1 0  24.5 1 0  24.75 1 0  25 1 0  0 1.25 0  0.25 1.25 0  0.5 1.25 0  0.75 1.25 0  1 1.25 0  1.25 1.25 0  1.5 1.25 0  1.75 1.25 0  2 1.25 0  2.25 1.25 0  2.5 1.25 0  2.75 1.25 0  3 1.25 0  3.25 1.25 0  3.5 1.25 0  3.75 1.25 0  4 1.25 0  4.25 1.25 0  4.5 1.25 0  4.75 1.25 0  5 1.25 0  5.25 1.25 0  5.5 1.25 0  5.75 1.25 0  6 1.25 0  6.25 1.25 0  6.5 1.25 0  6.75 1.25 0  7 1.25 0  7.25 1.25 0  7.5 1.25 0  7.75 1.25 0  8 1.25 0  8.25 1.25 0  8.5 1.25 0  8.75 1.25 0  9 1.25 0  9.25 1.25 0  9.5 1.25 0  9.75 1.25 0  10 1.25 0  10.25 1.25 0  10.5 1.25 0  10.75 1.25 0  11 1.25 0  11.25 1.25 0  11.5 1.25 0  11.75 1.25 0  12 1.25 0  12.25 1.25 0  12.5 1.25 0  12.75 1.25 0  13 1.25 0  13.25 1.25 0  13.5 1.25 0  13.75 1.25 0  14 1.25 0  14.25 1.25 0  14.5 1.25 0  14.75 1.25 0  15 1.25 0  15.25 1.25 0  15.5 1.25 0  15.75 1.25 0  16 1.25 0  16.25 1.25 0  16.5 1.25 0  16.75 1.25 0  17 1.25 0  17.25 1.25 0  17.5 1.25 0  17.75 1.25 0  18 1.25 0  18.25 1.25 0  18.5 1.25 0  18.75 1.25 0  19 1.25 0  19.25 1.25 0  19.5 1.25 0  19.75 1.25 0  20 1.25 0  20.25 1.25 0  20.5 1.25 0  20.75 1.25 0  21 1.25 0  21.25 1.25 0  21.5 1.25 0  21.75 1.25 0  22 1.25 0  22.25 1.25 0  22.5 1.25 0  22.75 1.25 0  23 1.25 0  23.25 1.25 0  23.5 1.25 0  23.75 1.25 0  24 1.25 0  24.25 1.25 0  24.5 1.25 0  24.75 1.25 0  25 1.25 0  0 1.5 0  0.25 1.5 0  0.5 1.5 0  0.75 1.5 0  1 1.5 0  1.25 1.5 0  1.5 1.5 0  1.75 1.5 0  2 1.5 0  2.25 1.5 0  2.5 1.5 0  2.75 1.5 0  3 1.5 0  3.25 1.5 0  3.5 1.5 0  3.75 1.5 0  4 1.5 0  4.25 1.5 0  4.5 1.5 0  4.75 1.5 0  5 1.5 0  5.25 1.5 0  5.5 1.5 0  5.75 1.5 0  6 1.5 0  6.25 1.5 0  6.5 1.5 0  6.75 1.5 0  7 1.5 0  7.25 1.5 0  7.5 1.5 0  7.75 1.5 0  8 1.5 0  8.25 1.5 0  8.5 1.5 0  8.75 1.5 0  9 1.5 0  9.25 1.5 0  9.5 1.5 0  9.75 1.5 0  10 1.5 0  10.25 1.5 0  10.5 1.5 0  10.75 1.5 0  11 1.5 0  11.25 1.5 0  11.5 1.5 0  11.75 1.5 0  12 1.5 0  12.25 1.5 0  12.5 1.5 0  12.75 1.5 0  13 1.5 0  13.25 1.5 0  13.5 1.5 0  13.75 1.5 0  14 1.5 0  14.25 1.5 0  14.5 1.5 0  14.75 1.5 0  15 1.5 0  15.25 1.5 0  15.5 1.5 0  15.75 1.5 0  16 1.5 0  16.25 1.5 0  16.5 1.5 0  16.75 1.5 0  17 1.5 0  17.25 1.5 0  17.5 1.5 0  17.75 1.5 0  18 1.5 0  18.25 1.5 0  18.5 1.5 0  18.75 1.5 0  19 1.5 0  19.25 1.5 0  19.5 1.5 0  19.75 1.5 0  20 1.5 0  20.25 1.5 0  20.5 1.5 0  20.75 1.5 0  21 1.5 0  21.25 1.5 0  21.5 1.5 0  21.75 1.5 0  22 1.5 0  22.25 1.5 0  22.5 1.5 0  22.75 1.5 0  23 1.5 0  23.25 1.5 0  23.5 1.5 0  23.75 1.5 0  24 1.5 0  24.25 1.5 0  24.5 1.5 0  24.75 1.5 0  25 1.5 0  0 1.75 0  0.25 1.75 0  0.5 1.75 0  0.75 1.75 0  1 1.75 0  1.25 1.75 0  1.5 1.75 0  1.75 1.75 0  2 1.75 0  2.25 1.75 0  2.5 1.75 0  2.75 1.75 0  3 1.75 0  3.25 1.75 0  3.5 1.75 0  3.75 1.75 0  4 1.75 0  4.25 1.75 0  4.5 1.75 0  4.75 1.75 0  5 1.75 0  5.25 1.75 0  5.5 1.75 0  5.75 1.75 0  6 1.75 0  6.25 1.75 0  6.5 1.75 0  6.75 1.75 0  7 1.75 0  7.25 1.75 0  7.5 1.75 0  7.75 1.75 0  8 1.75 0  8.25 1.75 0  8.5 1.75 0  8.75 1.75 0  9 1.75 0  9.25 1.75 0  9.5 1.75 0  9.75 1.75 0  10 1.75 0  10.25 1.75 0  10.5 1.75 0  10.75 1.75 0  11 1.75 0  11.25 1.75 0  11.5 1.75 0  11.75 1.75 0  12 1.75 0  12.25 1.75 0  12.5 1.75 0  12.75 1.75 0  13 1.75 0  13.25 1.75 0  13.5 1.75 0  13.75 1.75 0  14 1.75 0  14.25 1.75 0  14.5 1.75 0  14.75 1.75 0  15 1.75 0  15.25 1.75 0  15.5 1.75 0  15.75 1.75 0  16 1.75 0  16.25 1.75 0  16.5 1.75 0  16.75 1.75 0  17 1.75 0  17.25 1.75 0  17.5 1.75 0  17.75 1.75 0  18 1.75 0  18.25 1.75 0  18.5 1.75 0  18.75 1.75 0  19 1.75 0  19.25 1.75 0  19.5 1.75 0  19.75 1.75 0  20 1.75 0  20.25 1.75 0  20.5 1.75 0  20.75 1.75 0  21 1.75 0  21.25 1.75 0  21.5 1.75 0  21.75 1.75 0  22 1.75 0  22.25 1.75 0  22.5 1.75 0  22.75 1.75 0  23 1.75 0  23.25 1.75 0  23.5 1.75 0  23.75 1.75 0  24 1.75 0  24.25 1.75 0  24.5 1.75 0  24.75 1.75 0  25 1.75 0  0 2 0  0.25 2 0  0.5 2 0  0.75 2 0  1 2 0  1.25 2 0  1.5 2 0  1.75 2 0  2 2 0  2.25 2 0  2.5 2 0  2.75 2 0  3 2 0  3.25 2 0  3.5 2 0  3.75 2 0  4 2 0  4.25 2 0  4.5 2 0  4.75 2 0  5 2 0  5.25 2 0  5.5 2 0  5.75 2 0  6 2 0  6.25 2 0  6.5 2 0  6.75 2 0  7 2 0  7.25 2 0  7.5 2 0  7.75 2 0  8 2 0  8.25 2 0  8.5 2 0  8.75 2 0  9 2 0  9.25 2 0  9.5 2 0  9.75 2 0  10 2 0  10.25 2 0  10.5 2 0  10.75 2 0  11 2 0  11.25 2 0 
[...]
<PointData  Scalars="f_26"> 
<DataArray  type="Float64"  Name="f_26"  format="ascii">9.9991957411742638e-01  9.9991558403752712e-01  9.9990459514064134e-01  9.9988503257741557e-01  9.9985442115819734e-01  9.9980895656838586e-01  9.9974299424506474e-01  9.9964832496549516e-01  9.9951312998308495e-01  9.9932047929987122e-01  9.9904618203947215e-01  9.9865571810936604e-01  9.9809986806484663e-01  9.9730850216571931e-01  9.9618177608146175e-01  9.9457769427405485e-01  9.9229463049644329e-01  9.8904693951615241e-01  9.8443129408329411e-01  9.7788096207701336e-01  9.6860520799641669e-01  9.5551201659633256e-01  9.3711565676363429e-01  9.1143839306357644e-01  8.7593100932114287e-01  8.2746267083842429e-01  7.6246575237300163e-01  6.7735105500611947e-01  5.6929356527018138e-01  4.3736565151621470e-01  2.8372914031608409e-01  1.1429663335207600e-01  -6.1765058485038750e-02  -2.3382986815538920e-01  -3.9224486008651521e-01  -5.3029874937656563e-01  -6.4496985628482706e-01  -7.3647449348064054e-01  -8.0717571154609491e-01  -8.6044714614665085e-01  -8.9982593833302538e-01  -9.2852332084221523e-01  -9.4921892033059529e-01  -9.6403102422189380e-01  -9.7457458323175983e-01  -9.8205063157694250e-01  -9.8733713773608267e-01  -9.9106824344003996e-01  -9.9369814019655911e-01  -9.9555021800495980e-01  -9.9685378205978159e-01  -9.9777095375484659e-01  -9.9841612311772765e-01  -9.9886988921825914e-01  -9.9918898851062810e-01  -9.9941333525359055e-01  -9.9957099897101009e-01  -9.9968171600642985e-01  -9.9975936324418757e-01  -9.9981369894590910e-01  -9.9985158697487575e-01  -9.9987785731479017e-01  -9.9989591075415118e-01  -9.9990814372020032e-01  -9.9991624672797663e-01  -9.9992141403712609e-01  -9.9992449093518032e-01  -9.9992607720722282e-01  -9.9992659982826926e-01  -9.9992636403417057e-01  -9.9992558920150421e-01  -9.9992443405325726e-01  -9.9992301436352427e-01  -9.9992141539112844e-01  -9.9991970060973678e-01  -9.9991791783688255e-01  -9.9991610353752303e-01  -9.9991428584806663e-01  -9.9991248670521660e-01  -9.9991072335020714e-01  -9.9990900939878002e-01  -9.9990735561060107e-01  -9.9990577045174733e-01  -9.9990426051550441e-01  -9.9990283084659115e-01  -9.9990148519965827e-01  -9.9990022625282338e-01  -9.9989905578992022e-01  -9.9989797486022314e-01  -9.9989698392108273e-01  -9.9989608296674004e-01  -9.9989527164531711e-01  -9.9989454936542965e-01  -9.9989391539403494e-01  -9.9989336894835035e-01  -9.9989290928821251e-01  -9.9989253582563253e-01  -9.9989224830262247e-01  -9.9989204721725800e-01  -9.9989193521625652e-01  -9.9989192260941862e-01  9.9991891432444846e-01  9.9991530556115349e-01  9.9990434999260969e-01  9.9988472186412403e-01  9.9985399208213122e-01  9.9980835486260233e-01  9.9974214793869054e-01  9.9964713307344488e-01  9.9951144943231696e-01  9.9931810731960125e-01  9.9904283172505248e-01  9.9865098447905543e-01  9.9809318125344870e-01  9.9729906368145216e-01  9.9616847362096916e-01  9.9455899112539292e-01  9.9226842845966368e-01  9.8901042224826297e-01  9.8438077574534266e-01  9.7781180227491593e-01  9.6851191992775365e-01  9.5538880296333428e-01  9.3695775603234122e-01  9.1124475638840541e-01  8.7570878586086820e-01  8.2723338509917577e-01  7.6227138901844949e-01  6.7725538400562890e-01  5.6937151080956860e-01  4.3767575599630787e-01  2.8427580013830583e-01  1.1500543022122277e-01  -6.1032660150490546e-02  -2.3322168102754337e-01  -3.9185725301811358e-01  -5.3014957079804070e-01  -6.4501389941762799e-01  -7.3663967340624936e-01  -8.0739423833474311e-01  -8.6067067446688350e-01  -9.0002718490915101e-01  -9.2869108920852550e-01  -9.4935190128646640e-01  -9.6413285940633620e-01  -9.7465070908420315e-01  -9.8210657295255532e-01  -9.8737774526222521e-01  -9.9109746019886436e-01  -9.9371902642418475e-01  -9.9556507883478440e-01  -9.9686431931680652e-01  -9.9777840656366246e-01  -9.9842138495934796e-01  -9.9887359989066149e-01  -9.9919160387420525e-01  -9.9941517893721377e-01  -9.9957230012164078e-01  -9.9968263655887646e-01  -9.9976001747355858e-01  -9.9981416741164764e-01  -9.9985192642620435e-01  -9.9987810770684948e-01  -9.9989610020673036e-01  -9.9990829201646803e-01  -9.9991636777981074e-01  -9.9992151762043224e-01  -9.9992458391032224e-01  -9.9992616437676518e-01  -9.9992668453953659e-01  -9.9992644860245861e-01  -9.9992567520738784e-01  -9.9992452255162456e-01  -9.9992310603081047e-01  -9.9992151062936074e-01  -9.9991979962045530e-01  -9.9991802067409918e-01  -9.9991621014613019e-01  -9.9991439609216437e-01  -9.9991260038946561e-01  -9.9991084023634791e-01  -9.9990912921878228e-01  -9.9990747807743219e-01  -9.9990589526840901e-01  -9.9990438738275800e-01  -9.9990295946962593e-01  -9.9990161529384824e-01  -9.9990035754864004e-01  -9.9989918803701761e-01  -9.9989810783067734e-01  -9.9989711741173304e-01  -9.9989621680054563e-01  -9.9989540567157309e-01  -9.9989468345853549e-01  -9.9989404945012450e-01  -9.9989350287801182e-01  -9.9989304300013260e-01  -9.9989266918397812e-01  -9.9989238099350297e-01  -9.9989217825432375e-01  -9.9989206086431182e-01  -9.9989202687052692e-01  9.9991847381511467e-01  9.9991494572856876e-01  9.9990400243456334e-01  9.9988432512537551e-01  9.9985349545782132e-01  9.9980770486413928e-01  9.9974127727403694e-01  9.9964595072464602e-01  9.9950982938677646e-01  9.9931587408360867e-01  9.9903974093845838e-01  9.9864669684583118e-01  9.9808722782357318e-01  9.9729080050292618e-01  9.9615702429491815e-01  9.9454317750314503e-01  9.9224669379931252e-01  9.8898075960254839e-01  9.8434069031374871e-01  9.7775836418972284e-01  9.6844200774373201e-01  9.5529969817697735e-01  9.3684831096019139e-01  9.1111737245953861e-01  8.7557229440568896e-01  8.2710643226199598e-01  7.6218491855912007e-01  6.7725144315664731e-01  5.6949490758935462e-01  4.3795715730364387e-01  2.8471117325804191e-01  1.1554433109718727e-01  -6.0477291806054989e-02  -2.3274268227208508e-01  -3.9151893553304995e-01  -5.2997055045362218e-01  -6.4497309719044305e-01  -7.3669550758756419e-01  -8.0750332319256435e-01  -8.6079872842802241e-01  -9.0015208677223602e-01  -9.2880126755265580e-01  -9.4944312769732553e-01  -9.6420521860607022e-01  -9.7470638656150776e-01  -9.8214848009723588e-01  -9.8740877690138185e-01  -9.9112015813555110e-01  -9.9373547390332440e-01  -9.9557691126781911e-01  -9.9687278406465207e-01  -9.9778443604929490e-01  -9.9842566616482120e-01  -9.9887663360665790e-01  -9.9919375227102170e-01  -9.9941670236235969e-01  -9.9957338486687808e-01  -9.9968341545403294e-01  -9.9976058497116782e-01  -9.9981459053466371e-01  -9.9985225265775424e-01  -9.9987837064513740e-01  -9.9989632360039571e-01  -9.9990849263383075e-01  -9.9991655744272268e-01  -9.9992170464211816e-01  -9.9992477410948333e-01  -9.9992636179137695e-01  -9.9992689192847295e-01  -9.9992666779769557e-01  -9.9992590736136377e-01  -9.9992476831135868e-01  -9.9992336566113216e-01  -9.9992178410102206e-01  -9.9992008667422028e-01  -9.9991832086857257e-01  -9.9991652289472099e-01  -9.9991472069289322e-01  -9.9991293605011944e-01  -9.9991118609662966e-01  -9.9990948437048932e-01  -9.9990784158326007e-01  -9.9990626617967326e-01  -9.9990476475610857e-01  -9.9990334238268397e-01  -9.9990200285960029e-01  -9.9990074892836389e-01  -9.9989958245148169e-01  -9.9989850456933371e-01  -9.9989751583960140e-01  -9.9989661636244154e-01  -9.9989580589321547e-01  -9.9989508394379134e-01  -9.9989444987298037e-01  -9.9989390296627323e-01  -9.9989344250402290e-01  -9.9989306781370357e-01  -9.9989277829018941e-01  -9.9989257333236370e-01  -9.9989245205255206e-01  -9.9989241249134542e-01  9.9991805680784129e-01  9.9991454224382648e-01  9.9990358810323854e-01  9.9988386243125937e-01  9.9985294319621842e-01  9.9980701537623773e-01  9.9974039046169338e-01  9.9964478679332303e-01  9.9950828001449021e-01  9.9931379118495389e-01  9.9903692207681771e-01  9.9864286633035682e-01  9.9808201263312113e-01  9.9728370057606686e-01  9.9614737772901507e-01  9.9453012335008439e-01  9.9222913928797896e-01  9.8895736603735485e-01  9.8430990427903930e-01  9.7771853972692946e-01  9.6839169123142210e-01  9.5523817651413379e-01  9.3677654007776268e-01  9.1103937096690402e-01  8.7549694038847781e-01  8.2704925415410413e-01  7.6216888563206409e-01  6.7730511714142927e-01  5.6964623864928576e-01  4.3822271787908340e-01  2.8508420268146262e-01  1.1598875388772641e-01  -6.0020173686258622e-02  -2.3233545810537232e-01  -3.9120717817061162e-01  -5.2977141331434363e-01  -6.4487746920430844e-01  -7.3667878254357677e-01  -8.0753704404336701e-01  -8.6085832388902039e-01  -9.0021995708305969e-01  -9.2886667500465780e-01  -9.4950064676417245e-01  -9.6425293769316511e-01  -9.7474441900881326e-01  -9.8217792687449124e-01  -9.8743108858433593e-01  -9.9113678613022838e-01  -9.9374770689904957e-01  -9.9558581908402244e-01  -9.9687921762456433e-01  -9.9778905266489160e-01  -9.9842896307609141e-01  -9.9887898119224505e-01  -9.9919542320601751e-01  -9.9941789559190330e-01  -9.9957424452694577e-01  -9.9968404539755340e-01  -9.9976105970300544e-01  -9.9981496332407782e-01  -9.9985256148988055e-01  -9.9987864254855974e-01  -9.9989657777113083e-01  -9.9990874267665786e-01  -9.9991681297064638e-01  -9.9992197241231240e-01  -9.9992505882654525e-01  -9.9992666667314500e-01  -9.9992721910335391e-01  -9.9992701858316357e-01  -9.9992628245926118e-01  -9.9992516794546327e-01  -9.9992378967511719e-01  -9.9992223202965480e-01  -9.9992055779683997e-01  -9.9991881425115658e-01  -9.9991703742487348e-01  -9.9991525511066792e-01  -9.9991348897655929e-01  -9.9991175606115745e-01  -9.9991006983774400e-01  -9.9990844097958487e-01  -9.9990687791918276e-01  -9.9990538726607092e-01  -9.9990397412782861e-01  -9.9990264236488136e-01  -9.9990139479967266e-01  -9.9990023339379008e-01  -9.9989915940175145e-01  -9.9989817350683996e-01  -9.9989727594215738e-01  -9.9989646659864229e-01  -9.9989574512087642e-01  -9.9989511099084216e-01  -9.9989456359901652e-01  -9.9989410230075793e-01  -9.9989372645278451e-01  -9.9989343541812525e-01  -9.9989322851812246e-01  -9.9989310491061612e-01  -9.9989306346099516e-01  9.9991761373586907e-01  9.9991409669109277e-01  9.9990312175868001e-01  9.9988334811913426e-01  9.9985234762484909e-01  9.9980629793022180e-01  9.9973949962625419e-01  9.9964365512025455e-01  9.9950681772155137e-01  9.9931187810836353e-01  9.9903439760183199e-01  9.9863951700694231e-01  9.9807755746984861e-01  9.9727777462986122e-01  9.9613951581817273e-01  9.9451974790156561e-01  9.9221556004763090e-01  9.8893980534255610e-01  9.8428757054650851e-01  9.7769078401233633e-01  9.6835829585986244e-01  9.5519983574626588e-01  9.3673558798016165e-01  9.1100076658889018e-01  8.7546939716816841e-01  8.2704616030346190e-01  7.6220831082313623e-01  6.7740788381206007e-01  5.6983114428118653e-01  4.3849908715588326e-01  2.8544418188855347e-01  1.1640391404811146e-01  -5.9593894617185096e-02  -2.3194505871288976e-01  -3.9088838483344701e-01  -5.2954040212399278e-01  -6.4473140588783373e-01  -7.3660242882888127e-01  -8.0751059705353079e-01  -8.6086317398747514e-01  -9.0024151031194588e-01  -9.2889491334419549e-01  -9.4952947629574558e-01  -9.6427913879396676e-01  -9.7476664790570167e-01  -9.8219594133211152e-01  -9.8744521733528834e-01  -9.9114759843394029e-01  -9.9375582476149216e-01  -9.9559182193857654e-01  -9.9688360239081408e-01  -9.9779222440522364e-01  -9.9843124087819646e-01  -9.9888061035544917e-01  -9.9919658891556773e-01  -9.9941873572763129e-01  -9.9957486064664680e-01  -9.9968451167338324e-01  -9.9976142994399686e-01  -9.9981527636003920e-01  -9.9985284522333495e-01  -9.9987891696032105e-01  -9.9989685712345555e-01  -9.9990903711200330e-01  -9.9991712966156499e-01  -9.9992231638184204e-01  -9.9992543352916752e-01  -9.9992707440342576e-01  -9.9992766128177735e-01  -9.9992749595539754e-01  -9.9992679523519434e-01  -9.9992571589703783e-01  -9.9992437220660879e-01  -9.9992284823011135e-01  -9.9992120648151650e-01  -9.9991949399667424e-01  -9.9991774660128985e-01  -9.9991599191250846e-01  -9.9991425145402291e-01  -9.9991254215208825e-01  -9.9991087740050777e-01  -9.9990926782665013e-01  -9.9990772185097043e-01  -9.9990624610447199e-01  -9.9990484574868310e-01  -9.9990352472866040e-01  -9.9990228597958764e-01  -9.9990113160056993e-01  -9.9990006300436718e-01  -9.9989908104850311e-01  -9.9989818615096970e-01  -9.9989737839230364e-01  -9.9989665760486968e-01  -9.9989602344950690e-01  -9.9989547547903235e-01  -9.9989501318720830e-01  -9.9989463604052331e-01  -9.9989434348909245e-01  -9.9989413495534896e-01  -9.9989400981542009e-01  -9.9989396743981540e-01  9.9991713369814839e-01  9.9991361048123839e-01  9.9990261249815149e-01  9.9988279392714019e-01  9.9985172146035206e-01  9.9980556642011242e-01  9.9973862073607034e-01  9.9964257488022201e-01  9.9950546610844748e-01  9.9931016409227369e-01  9.9903220340495347e-01  9.9863669182122405e-01  9.9807391130191991e-01  9.9727307370359841e-01  9.9613348225697174e-01  9.9451206850400731e-01  9.9220591220382093e-01  9.8892791286644555e-01  9.8427330860014073e-01  9.7767435994415075e-01  9.6834053977414947e-01  9.5518263608952447e-01  9.3672249333378521e-01  9.1099772787257716e-01  8.7548552076593411e-01  8.2709416267908387e-01  7.6230412658841029e-01  6.7756869992642677e-01  5.7007129392379463e-01  4.3882411108281599e-01  2.8584500757779635e-01  1.1685458859040611e-01  -5.9132009845828511e-02  -2.3151317948605274e-01  -3.9051897983923950e-01  -5.2925026255861662e-01  -6.4452144297294878e-01  -7.3646236514450891e-01  -8.0742501609648809e-01  -8.6081632398371910e-01  -9.0022000453284823e-01  -9.2888865214490512e-01  -9.4953149562606964e-01  -9.6428499531067291e-01  -9.7477371882080943e-01  -9.8220281772013662e-01  -9.8745124548038377e-01  -9.9115256252231621e-01  -9.9375974181925653e-01  -9.9559481713153974e-01  -9.9688583788463758e-01  -9.9779386192579989e-01  -9.9843242436984769e-01  -9.9888145994483191e-01  -9.9919720076994489e-01  -9.9941918463187707e-01  -9.9957520353317653e-01  -9.9968479119150799e-01  -9.9976167764884194e-01  -9.9981551537306368e-01  -9.9985309235625996e-01  -9.9987918435834366e-01  -9.9989715350632546e-01  -9.9990936869309766e-01  -9.9991750081698816e-01  -9.9992273013005017e-01  -9.9992589186982961e-01  -9.9992757855362635e-01  -9.9992821183876013e-01  -9.9992809300786267e-01  -9.9992743843952958e-01  -9.9992640453052695e-01  -9.9992510520635980e-01  -9.9992362422395775e-01  -9.9992202381526740e-01  -9.9992035076067831e-01  -9.9991864065821001e-01  -9.9991692092739681e-01  -9.9991521292716878e-01  -9.9991353345464296e-01  -9.9991189581253326e-01  -9.9991031057697433e-01  -9.9990878615804113e-01  -9.9990732921726977e-01  -9.9990594498668373e-01  -9.9990463751980430e-01  -9.9990340989523119e-01  -9.9990226438643770e-01  -9.9990120260660331e-01  -9.9990022563401837e-01  -9.9989933412139975e-01  -9.9989852839103566e-01  -9.9989780851677290e-01  -9.9989717439328307e-01  -9.9989662579263705e-01  -9.9989616240793611e-01  -9.9989578388376499e-01  -9.9989548983432663e-01  -9.9989527985416116e-01  -9.9989515353642089e-01  -9.9989511052962754e-01  9.9991661837115065e-01  9.9991308874861451e-01  9.9990206935634884e-01  9.9988221160442514e-01  9.9985107864775802e-01  9.9980483733822545e-01  9.9973777379882489e-01  9.9964157100876938e-01  9.9950425684608091e-01  9.9930868975469167e-01  9.9903039166924801e-01  9.9863445747770074e-01  9.9807115844070760e-01  9.9726970249133828e-01  9.9612940382894832e-01  9.9450723354593706e-01  9.9220036173132697e-01  9.8892186366901202e-01  9.8426729068484908e-01  9.7766942833363502e-01  9.6833858606116940e-01  9.5518682156179002e-01  9.3673780643201476e-01  9.1103161986068870e-01  8.7554847609584052e-01  8.2719990144071975e-01  7.6246893661136195e-01  6.7780926508211814e-01  5.7040057319923754e-01  4.3924565271178473e-01  2.8634757735758354e-01  1.1741029202164525e-01  -5.8563494134556027e-02  -2.3097483697492444e-01  -3.9004552980445428e-01  -5.2886125237726900e-01  -6.4422060907213019e-01  -7.3624170989836424e-01  -8.0727042100029056e-01  -8.6071225551089314e-01  -9.0015239782780632e-01  -9.2884614750727734e-01  -9.4950560084979296e-01  -9.6426971289046692e-01  -9.7476499826906493e-01  -9.8219802402008494e-01  -9.8744872106775150e-01  -9.9115129809453539e-01  -9.9375914356844741e-01  -9.9559454937090985e-01  -9.9688572039247991e-01  -9.9779380502535620e-01  -9.9843238904940501e-01  -9.9888143407614105e-01  -9.9919718538894431e-01  -9.9941918633996241e-01  -9.9957523051585928e-01  -9.9968485130502327e-01  -9.9976177763973195e-01  -9.9981566068196270e-01  -9.9985328719425304e-01  -9.9987943188647577e-01  -9.9989745603188585e-01  -9.9990972784328347e-01  -9.9991791767601701e-01  -9.9992320533874524e-01  -9.9992642569259982e-01  -9.9992817091985464e-01  -9.9992886236575274e-01  -9.9992880101177029e-01  -9.9992820293957707e-01  -9.9992722425077607e-01  -9.9992597857820664e-01  -9.9992454939167541e-01  -9.9992299864615142e-01  -9.9992137286073046e-01  -9.9991970739377478e-01  -9.9991802945273811e-01  -9.9991636021762231e-01  -9.9991471634469087e-01  -9.9991311103791636e-01  -9.9991155481978145e-01  -9.9991005609357986e-01  -9.9990862156144689e-01  -9.9990725654257862e-01  -9.9990596522212760e-01  -9.9990475085140407e-01  -9.9990361591310861e-01  -9.9990256226053464e-01  -9.9990159123642586e-01  -9.9990070377500584e-01  -9.9989990048932120e-01  -9.9989918174519510e-01  -9.9989854772262421e-01  -9.9989799846525118e-01  -9.9989753391860281e-01  -9.9989715395826118e-01  -9.9989685841040565e-01  -9.9989664706978376e-01  -9.9989651972408478e-01  -9.9989647619573296e-01  9.9991607481107658e-01  9.9991253981706163e-01  9.9990150291693258e-01  9.9988161420196120e-01  9.9985043502329807e-01  9.9980413008037305e-01  9.9973698307826342e-01  9.9964067452634209e-01  9.9950323028272547e-01  9.9930750820016101e-01  9.9902903279180288e-01  9.9863290764590396e-01  9.9806942370149287e-01  9.9726782735061592e-01  9.9612750230558689e-01  9.9450553912982420e-01  9.9219930580749538e-01  9.8892219570099082e-01  9.8427025770481613e-01  9.7767703509273851e-01  9.6835395817442749e-01  9.5521468719441582e-01  9.3678508840037988e-01  9.1110807477592115e-01  8.7566721141591641e-01  8.2737743220290105e-01  7.6272423529022360e-01  6.7816113052618887e-01  5.7086287052634443e-01  4.3982090407272828e-01  2.8702102814064107e-01  1.1814798143068216e-01  -5.7809794787955324e-02  -2.3025651075238290e-01  -3.8940467878092372e-01  -5.2832270188941033e-01  -6.4379088323006917e-01  -7.3591334693078114e-01  -8.0702816812009959e-01  -8.6053842671369962e-01  -9.0003031380714649e-01  -9.2876177200334387e-01  -9.4944795070099253e-01  -9.6423061249219655e-01  -9.7473857549549092e-01  -9.8218017052149598e-01  -9.8743661828344942e-01  -9.9114304053459434e-01  -9.9375345697964657e-01  -9.9559058823609903e-01  -9.9688292653846988e-01  -9.9779181095887082e-01  -9.9843095291450223e-01  -9.9888039641546722e-01  -9.9919644066105173e-01  -9.9941866428099790e-01  -9.9957488399611349e-01  -9.9968464843351768e-01  -9.9976169662893843e-01  -9.9981568649731400e-01  -9.9985340935428990e-01  -9.9987964300400844e-01  -9.9989775083295929e-01  -9.9991010249550361e-01  -9.9991836931877176e-01  -9.9992373174689708e-01  -9.9992702503013298e-01  -9.9992884155579587e-01  -9.9992960273473097e-01  -9.9992960950793219e-01  -9.9992907783658003e-01  -9.9992816364308790e-01  -9.9992698034048966e-01  -9.9992561115397072e-01  -9.9992411778312518e-01  -9.9992254649353030e-01  -9.9992093240317304e-01  -9.9991930250226457e-01  -9.9991767778535212e-01  -9.9991607476228905e-01  -9.9991450653546576e-01  -9.9991298357484881e-01  -9.9991151428292813e-01  -9.9991010541377168e-01  -9.9990876239065940e-01  -9.9990748955282216e-01  -9.9990629035199730e-01  -9.9990516751264125e-01  -9.9990412316489397e-01  -9.9990315895616610e-01  -9.9990227614509775e-01  -9.9990147568029852e-01  -9.9990075826549796e-01  -9.9990012441234599e-01  -9.9989957448201217e-01  -9.9989910871689924e-01  -9.9989872726426188e-01  -9.9989843019437585e-01  -9.9989821751709673e-01  -9.9989808920152978e-