<?xml version="1.0"?>
<VTKFile type="UnstructuredGrid"  version="0.1"  >
<UnstructuredGrid>
<Piece  NumberOfPoints="10201" NumberOfCells="20000">
<Points>
<DataArray  type="Float64"  NumberOfComponents="3"  format="ascii">0 0 0  0.25 0 0  0.5 0 0  0.75 0 0  1 0 0  1.25 0 0  1.5 0 0  1.75 0 0  2 0 0  2.25 0 0  2.5 0 0  2.75 0 0  3 0 0  3.25 0 0  3.5 0 0  3.75 0 0  4 0 0  4.25 0 0  4.5 0 0  4.75 0 0  5 0 0  5.25 0 0  5.5 0 0  5.75 0 0  6 0 0  6.25 0 0  6.5 0 0  6.75 0 0  7 0 0  7.25 0 0  7.5 0 0  7.75 0 0  8 0 0  8.25 0 0  8.5 0 0  8.75 0 0  9 0 0  9.25 0 0  9.5 0 0  9.75 0 0  10 0 0  10.25 0 0  10.5 0 0  10.75 0 0  11 0 0  11.25 0 0  11.5 0 0  11.75 0 0  12 0 0  12.25 0 0  12.5 0 0  12.75 0 0  13 0 0  13.25 0 0  13.5 0 0  13.75 0 0  14 0 0  14.25 0 0  14.5 0 0  14.75 0 0  15 0 0  15.25 0 0  15.5 0 0  15.75 0 0  16 0 0  16.25 0 0  16.5 0 0  16.75 0 0  17 0 0  17.25 0 0  17.5 0 0  17.75 0 0  18 0 0  18.25 0 0  18.5 0 0  18.75 0 0  19 0 0  19.25 0 0  19.5 0 0  19.75 0 0  20 0 0  20.25 0 0  20.5 0 0  20.75 0 0  21 0 0  21.25 0 0  21.5 0 0  21.75 0 0  22 0 0  22.25 0 0  22.5 0 0  22.75 0 0  23 0 0  23.25 0 0  23.5 0 0  23.75 0 0  24 0 0  24.25 0 0  24.5 0 0  24.75 0 0  25 0 0  0 0.25 0  0.25 0.25 0  0.5 0.25 0  0.75 0.25 0  1 0.25 0  1.25 0.25 0  1.5 0.25 0  1.75 0.25 0  2 0.25 0  2.25 0.25 0  2.5 0.25 0  2.75 0.25 0  3 0.25 0  3.25 0.25 0  3.5 0.25 0  3.75 0.25 0  4 0.25 0  4.25 0.25 0  4.5 0.25 0  4.75 0.25 0  5 0.25 0  5.25 0.25 0  5.5 0.25 0  5.75 0.25 0  6 0.25 0  6.25 0.25 0  6.5 0.25 0  6.75 0.25 0  7 0.25 0  7.25 0.25 0  7.5 0.25 0  7.75 0.25 0  8 0.25 0  8.25 0.25 0  8.5 0.25 0  8.75 0.25 0  9 0.25 0  9.25 0.25 0  9.5 0.25 0  9.75 0.25 0  10 0.25 0  10.25 0.25 0  10.5 0.25 0  10.75 0.25 0  11 0.25 0  11.25 0.25 0  11.5 0.25 0  11.75 0.25 0  12 0.25 0  12.25 0.25 0  12.5 0.25 0  12.75 0.25 0  13 0.25 0  13.25 0.25 0  13.5 0.25 0  13.75 0.25 0  14 0.25 0  14.25 0.25 0  14.5 0.25 0  14.75 0.25 0  15 0.25 0  15.25 0.25 0  15.5 0.25 0  15.75 0.25 0  16 0.25 0  16.25 0.25 0  16.5 0.25 0  16.75 0.25 0  17 0.25 0  17.25 0.25 0  17.5 0.25 0  17.75 0.25 0  18 0.25 0  18.25 0.25 0  18.5 0.25 0  18.75 0.25 0  19 0.25 0  19.25 0.25 0  19.5 0.25 0  19.75 0.25 0  20 0.25 0  20.25 0.25 0  20.5 0.25 0  20.75 0.25 0  21 0.25 0  21.25 0.25 0  21.5 0.25 0  21.75 0.25 0  22 0.25 0  22.25 0.25 0  22.5 0.25 0  22.75 0.25 0  23 0.25 0  23.25 0.25 0  23.5 0.25 0  23.75 0.25 0  24 0.25 0  24.25 0.25 0  24.5 0.25 0  24.75 0.25 0  25 0.25 0  0 0.5 0  0.25 0.5 0  0.5 0.5 0  0.75 0.5 0  1 0.5 0  1.25 0.5 0  1.5 0.5 0  1.75 0.5 0  2 0.5 0  2.25 0.5 0  2.5 0.5 0  2.75 0.5 0  3 0.5 0  3.25 0.5 0  3.5 0.5 0  3.75 0.5 0  4 0.5 0  4.25 0.5 0  4.5 0.5 0  4.75 0.5 0  5 0.5 0  5.25 0.5 0  5.5 0.5 0  5.75 0.5 0  6 0.5 0  6.25 0.5 0  6.5 0.5 0  6.75 0.5 0  7 0.5 0  7.25 0.5 0  7.5 0.5 0  7.75 0.5 0  8 0.5 0  8.25 0.5 0  8.5 0.5 0  8.75 0.5 0  9 0.5 0  9.25 0.5 0  9.5 0.5 0  9.75 0.5 0  10 0.5 0  10.25 0.5 0  10.5 0.5 0  10.75 0.5 0  11 0.5 0  11.25 0.5 0  11.5 0.5 0  11.75 0.5 0  12 0.5 0  12.25 0.5 0  12.5 0.5 0  12.75 0.5 0  13 0.5 0  13.25 0.5 0  13.5 0.5 0  13.75 0.5 0  14 0.5 0  14.25 0.5 0  14.5 0.5 0  14.75 0.5 0  15 0.5 0  15.25 0.5 0  15.5 0.5 0  15.75 0.5 0  16 0.5 0  16.25 0.5 0  16.5 0.5 0  16.75 0.5 0  17 0.5 0  17.25 0.5 0  17.5 0.5 0  17.75 0.5 0  18 0.5 0  18.25 0.5 0  18.5 0.5 0  18.75 0.5 0  19 0.5 0  19.25 0.5 0  19.5 0.5 0  19.75 0.5 0  20 0.5 0  20.25 0.5 0  20.5 0.5 0  20.75 0.5 0  21 0.5 0  21.25 0.5 0  21.5 0.5 0  21.75 0.5 0  22 0.5 0  22.25 0.5 0  22.5 0.5 0  22.75 0.5 0  23 0.5 0  23.25 0.5 0  23.5 0.5 0  23.75 0.5 0  24 0.5 0  24.25 0.5 0  24.5 0.5 0  24.75 0.5 0  25 0.5 0  0 0.75 0  0.25 0.75 0  0.5 0.75 0  0.75 0.75 0  1 0.75 0  1.25 0.75 0  1.5 0.75 0  1.75 0.75 0  2 0.75 0  2.25 0.75 0  2.5 0.75 0  2.75 0.75 0  3 0.75 0  3.25 0.75 0  3.5 0.75 0  3.75 0.75 0  4 0.75 0  4.25 0.75 0  4.5 0.75 0  4.75 0.75 0  5 0.75 0  5.25 0.75 0  5.5 0.75 0  5.75 0.75 0  6 0.75 0  6.25 0.75 0  6.5 0.75 0  6.75 0.75 0  7 0.75 0  7.25 0.75 0  7.5 0.75 0  7.75 0.75 0  8 0.75 0  8.25 0.75 0  8.5 0.75 0  8.75 0.75 0  9 0.75 0  9.25 0.75 0  9.5 0.75 0  9.75 0.75 0  10 0.75 0  10.25 0.75 0  10.5 0.75 0  10.75 0.75 0  11 0.75 0  11.25 0.75 0  11.5 0.75 0  11.75 0.75 0  12 0.75 0  12.25 0.75 0  12.5 0.75 0  12.75 0.75 0  13 0.75 0  13.25 0.75 0  13.5 0.75 0  13.75 0.75 0  14 0.75 0  14.25 0.75 0  14.5 0.75 0  14.75 0.75 0  15 0.75 0  15.25 0.75 0  15.5 0.75 0  15.75 0.75 0  16 0.75 0  16.25 0.75 0  16.5 0.75 0  16.75 0.75 0  17 0.75 0  17.25 0.75 0  17.5 0.75 0  17.75 0.75 0  18 0.75 0  18.25 0.75 0  18.5 0.75 0  18.75 0.75 0  19 0.75 0  19.25 0.75 0  19.5 0.75 0  19.75 0.75 0  20 0.75 0  20.25 0.75 0  20.5 0.75 0  20.75 0.75 0  21 0.75 0  21.25 0.75 0  21.5 0.75 0  21.75 0.75 0  22 0.75 0  22.25 0.75 0  22.5 0.75 0  22.75 0.75 0  23 0.75 0  23.25 0.75 0  23.5 0.75 0  23.75 0.75 0  24 0.75 0  24.25 0.75 0  24.5 0.75 0  24.75 0.75 0  25 0.75 0  0 1 0  0.25 1 0  0.5 1 0  0.75 1 0  1 1 0  1.25 1 0  1.5 1 0  1.75 1 0  2 1 0  2.25 1 0  2.5 1 0  2.75 1 0  3 1 0  3.25 1 0  3.5 1 0  3.75 1 0  4 1 0  4.25 1 0  4.5 1 0  4.75 1 0  5 1 0  5.25 1 0  5.5 1 0  5.75 1 0  6 1 0  6.25 1 0  6.5 1 0  6.75 1 0  7 1 0  7.25 1 0  7.5 1 0  7.75 1 0  8 1 0  8.25 1 0  8.5 1 0  8.75 1 0  9 1 0  9.25 1 0  9.5 1 0  9.75 1 0  10 1 0  10.25 1 0  10.5 1 0  10.75 1 0  11 1 0  11.25 1 0  11.5 1 0  11.75 1 0  12 1 0  12.25 1 0  12.5 1 0  12.75 1 0  13 1 0  13.25 1 0  13.5 1 0  13.75 1 0  14 1 0  14.25 1 0  14.5 1 0  14.75 1 0  15 1 0  15.25 1 0  15.5 1 0  15.75 1 0  16 1 0  16.25 1 0  16.5 1 0  16.75 1 0  17 1 0  17.25 1 0  17.5 1 0  17.75 1 0  18 1 0  18.25 1 0  18.5 1 0  18.75 1 0  19 1 0  19.25 1 0  19.5 1 0  19.75 1 0  20 1 0  20.25 1 0  20.5 1 0  20.75 1 0  21 1 0  21.25 1 0  21.5 1 0  21.75 1 0  22 1 0  22.25 1 0  22.5 1 0  22.75 1 0  23 1 0  23.25 1 0  23.5 1 0  23.75 1 0  24 1 0  24.25 1 0  24.5 1 0  24.75 1 0  25 1 0  0 1.25 0  0.25 1.25 0  0.5 1.25 0  0.75 1.25 0  1 1.25 0  1.25 1.25 0  1.5 1.25 0  1.75 1.25 0  2 1.25 0  2.25 1.25 0  2.5 1.25 0  2.75 1.25 0  3 1.25 0  3.25 1.25 0  3.5 1.25 0  3.75 1.25 0  4 1.25 0  4.25 1.25 0  4.5 1.25 0  4.75 1.25 0  5 1.25 0  5.25 1.25 0  5.5 1.25 0  5.75 1.25 0  6 1.25 0  6.25 1.25 0  6.5 1.25 0  6.75 1.25 0  7 1.25 0  7.25 1.25 0  7.5 1.25 0  7.75 1.25 0  8 1.25 0  8.25 1.25 0  8.5 1.25 0  8.75 1.25 0  9 1.25 0  9.25 1.25 0  9.5 1.25 0  9.75 1.25 0  10 1.25 0  10.25 1.25 0  10.5 1.25 0  10.75 1.25 0  11 1.25 0  11.25 1.25 0  11.5 1.25 0  11.75 1.25 0  12 1.25 0  12.25 1.25 0  12.5 1.25 0  12.75 1.25 0  13 1.25 0  13.25 1.25 0  13.5 1.25 0  13.75 1.25 0  14 1.25 0  14.25 1.25 0  14.5 1.25 0  14.75 1.25 0  15 1.25 0  15.25 1.25 0  15.5 1.25 0  15.75 1.25 0  16 1.25 0  16.25 1.25 0  16.5 1.25 0  16.75 1.25 0  17 1.25 0  17.25 1.25 0  17.5 1.25 0  17.75 1.25 0  18 1.25 0  18.25 1.25 0  18.5 1.25 0  18.75 1.25 0  19 1.25 0  19.25 1.25 0  19.5 1.25 0  19.75 1.25 0  20 1.25 0  20.25 1.25 0  20.5 1.25 0  20.75 1.25 0  21 1.25 0  21.25 1.25 0  21.5 1.25 0  21.75 1.25 0  22 1.25 0  22.25 1.25 0  22.5 1.25 0  22.75 1.25 0  23 1.25 0  23.25 1.25 0  23.5 1.25 0  23.75 1.25 0  24 1.25 0  24.25 1.25 0  24.5 1.25 0  24.75 1.25 0  25 1.25 0  0 1.5 0  0.25 1.5 0  0.5 1.5 0  0.75 1.5 0  1 1.5 0  1.25 1.5 0  1.5 1.5 0  1.75 1.5 0  2 1.5 0  2.25 1.5 0  2.5 1.5 0  2.75 1.5 0  3 1.5 0  3.25 1.5 0  3.5 1.5 0  3.75 1.5 0  4 1.5 0  4.25 1.5 0  4.5 1.5 0  4.75 1.5 0  5 1.5 0  5.25 1.5 0  5.5 1.5 0  5.75 1.5 0  6 1.5 0  6.25 1.5 0  6.5 1.5 0  6.75 1.5 0  7 1.5 0  7.25 1.5 0  7.5 1.5 0  7.75 1.5 0  8 1.5 0  8.25 1.5 0  8.5 1.5 0  8.75 1.5 0  9 1.5 0  9.25 1.5 0  9.5 1.5 0  9.75 1.5 0  10 1.5 0  10.25 1.5 0  10.5 1.5 0  10.75 1.5 0  11 1.5 0  11.25 1.5 0  11.5 1.5 0  11.75 1.5 0  12 1.5 0  12.25 1.5 0  12.5 1.5 0  12.75 1.5 0  13 1.5 0  13.25 1.5 0  13.5 1.5 0  13.75 1.5 0  14 1.5 0  14.25 1.5 0  14.5 1.5 0  14.75 1.5 0  15 1.5 0  15.25 1.5 0  15.5 1.5 0  15.75 1.5 0  16 1.5 0  16.25 1.5 0  16.5 1.5 0  16.75 1.5 0  17 1.5 0  17.25 1.5 0  17.5 1.5 0  17.75 1.5 0  18 1.5 0  18.25 1.5 0  18.5 1.5 0  18.75 1.5 0  19 1.5 0  19.25 1.5 0  19.5 1.5 0  19.75 1.5 0  20 1.5 0  20.25 1.5 0  20.5 1.5 0  20.75 1.5 0  21 1.5 0  21.25 1.5 0  21.5 1.5 0  21.75 1.5 0  22 1.5 0  22.25 1.5 0  22.5 1.5 0  22.75 1.5 0  23 1.5 0  23.25 1.5 0  23.5 1.5 0  23.75 1.5 0  24 1.5 0  24.25 1.5 0  24.5 1.5 0  24.75 1.5 0  25 1.5 0  0 1.75 0  0.25 1.75 0  0.5 1.75 0  0.75 1.75 0  1 1.75 0  1.25 1.75 0  1.5 1.75 0  1.75 1.75 0  2 1.75 0  2.25 1.75 0  2.5 1.75 0  2.75 1.75 0  3 1.75 0  3.25 1.75 0  3.5 1.75 0  3.75 1.75 0  4 1.75 0  4.25 1.75 0  4.5 1.75 0  4.75 1.75 0  5 1.75 0  5.25 1.75 0  5.5 1.75 0  5.75 1.75 0  6 1.75 0  6.25 1.75 0  6.5 1.75 0  6.75 1.75 0  7 1.75 0  7.25 1.75 0  7.5 1.75 0  7.75 1.75 0  8 1.75 0  8.25 1.75 0  8.5 1.75 0  8.75 1.75 0  9 1.75 0  9.25 1.75 0  9.5 1.75 0  9.75 1.75 0  10 1.75 0  10.25 1.75 0  10.5 1.75 0  10.75 1.75 0  11 1.75 0  11.25 1.75 0  11.5 1.75 0  11.75 1.75 0  12 1.75 0  12.25 1.75 0  12.5 1.75 0  12.75 1.75 0  13 1.75 0  13.25 1.75 0  13.5 1.75 0  13.75 1.75 0  14 1.75 0  14.25 1.75 0  14.5 1.75 0  14.75 1.75 0  15 1.75 0  15.25 1.75 0  15.5 1.75 0  15.75 1.75 0  16 1.75 0  16.25 1.75 0  16.5 1.75 0  16.75 1.75 0  17 1.75 0  17.25 1.75 0  17.5 1.75 0  17.75 1.75 0  18 1.75 0  18.25 1.75 0  18.5 1.75 0  18.75 1.75 0  19 1.75 0  19.25 1.75 0  19.5 1.75 0  19.75 1.75 0  20 1.75 0  20.25 1.75 0  20.5 1.75 0  20.75 1.75 0  21 1.75 0  21.25 1.75 0  21.5 1.75 0  21.75 1.75 0  22 1.75 0  22.25 1.75 0  22.5 1.75 0  22.75 1.75 0  23 1.75 0  23.25 1.75 0  23.5 1.75 0  23.75 1.75 0  24 1.75 0  24.25 1.75 0  24.5 1.75 0  24.75 1.75 0  25 1.75 0  0 2 0  0.25 2 0  0.5 2 0  0.75 2 0  1 2 0  1.25 2 0  1.5 2 0  1.75 2 0  2 2 0  2.25 2 0  2.5 2 0  2.75 2 0  3 2 0  3.25 2 0  3.5 2 0  3.75 2 0  4 2 0  4.25 2 0  4.5 2 0  4.75 2 0  5 2 0  5.25 2 0  5.5 2 0  5.75 2 0  6 2 0  6.25 2 0  6.5 2 0  6.75 2 0  7 2 0  7.25 2 0  7.5 2 0  7.75 2 0  8 2 0  8.25 2 0  8.5 2 0  8.75 2 0  9 2 0  9.25 2 0  9.5 2 0  9.75 2 0  10 2 0  10.25 2 0  10.5 2 0  10.75 2 0  11 2 0  11.25 2 0 
[...]
<PointData  Scalars="f_23"> 
<DataArray  type="Float64"  Name="f_23"  format="ascii">1.2176055946794313e-02  1.2379691001995057e-02  1.2866866682353935e-02  1.3595646565022906e-02  1.4494914228618597e-02  1.5486616038816006e-02  1.6499146013443450e-02  1.7471961863922237e-02  1.8351534834671748e-02  1.9081192485724950e-02  1.9589585468850111e-02  1.9783411136112327e-02  1.9549058871623805e-02  1.8764872954410663e-02  1.7321667485671755e-02  1.5145873733604476e-02  1.2218978129478510e-02  8.5888484981829945e-03  4.3714738827149912e-03  -2.5643857929566444e-04  -5.0731347510877380e-03  -9.8345946122427204e-03  -1.4301660430967695e-02  -1.8266150611284719e-02  -2.1569201092782708e-02  -2.4106965665568702e-02  -2.5823845390640039e-02  -2.6698957027771121e-02  -2.6734198227691488e-02  -2.5950294846183535e-02  -2.4391810944120070e-02  -2.2136567778553568e-02  -1.9302447681429687e-02  -1.6046229560347864e-02  -1.2553429254798489e-02  -9.0223085213213833e-03  -5.6470881622774447e-03  -2.6045163217345243e-03  -4.5374869707730464e-05  1.9101408488477992e-03  3.1756722193665571e-03  3.7028078252612164e-03  3.4867177886451447e-03  2.5721049853917265e-03  1.0569325127452031e-03  -9.0913530291804594e-04  -3.1343203530849648e-03  -5.4036532673984537e-03  -7.5057448962269494e-03  -9.2624388300590159e-03  -1.0554032000113612e-02  -1.1333361658351719e-02  -1.1625778590166072e-02  -1.1516924090359742e-02  -1.1133622040570347e-02  -1.0623544912986206e-02  -1.0137118688258515e-02  -9.8123729817433739e-03  -9.7620014791868544e-03  -1.0062172026829092e-02  -1.0743545812127780e-02  -1.1785404591413844e-02  -1.3113717308879154e-02  -1.4604041967478439e-02  -1.6090440196681495e-02  -1.7381356267313859e-02  -1.8282101829745528e-02  -1.8621554838816886e-02  -1.8278891522778624e-02  -1.7205343488314814e-02  -1.5436305303098391e-02  -1.3090590952832859e-02  -1.0356129989629304e-02  -7.4643810545479260e-03  -4.6581697915504426e-03  -2.1585218731087334e-03  -1.3525711850325840e-04  1.3153798097678381e-03  2.1837547730238762e-03  2.5484422885245846e-03  2.5646268198397985e-03  2.4392289725980996e-03  2.3957693992395302e-03  2.6350703199494287e-03  3.2992844413189592e-03  4.4459699081148742e-03  6.0368123371858590e-03  7.9429983529405394e-03  9.9664434398787083e-03  1.1873299657030401e-02  1.3433984092992096e-02  1.4462793768020898e-02  1.4850001630412914e-02  1.4580285420956679e-02  1.3733890022096329e-02  1.2470966882405808e-02  1.1003657719073263e-02  9.5627699058965267e-03  8.3656201992236816e-03  7.5902456149260144e-03  7.3625986066618897e-03  1.2289937970638458e-02  1.2459838629811103e-02  1.2932172378008784e-02  1.3649861102401789e-02  1.4538784078838492e-02  1.5519969371894078e-02  1.6520827028338469e-02  1.7479473492118487e-02  1.8340981203412456e-02  1.9047767098664532e-02  1.9528627648760264e-02  1.9691814326178891e-02  1.9426628476851490e-02  1.8615207666761759e-02  1.7152300527514305e-02  1.4967662256186749e-02  1.2044929931893980e-02  8.4326577113644306e-03  4.2460434910020070e-03  -3.4021195198029005e-04  -5.1070632739805989e-03  -9.8132697616631227e-03  -1.4222033201524830e-02  -1.8127023066835606e-02  -2.1371086110133879e-02  -2.3852528466251355e-02  -2.5518720691332000e-02  -2.6352403846604193e-02  -2.6359031278845334e-02  -2.5561839944138607e-02  -2.4006085870079373e-02  -2.1768228979008850e-02  -1.8963100470544350e-02  -1.5743485038946622e-02  -1.2290756307324707e-02  -8.7994578451791455e-03  -5.4607656783776026e-03  -2.4490515237300474e-03  8.6713344759073836e-05  2.0276310221664057e-03  3.2880677644254812e-03  3.8196317275945102e-03  3.6166884779159523e-03  2.7222724081557973e-03  1.2318781211404560e-03  -7.0790993426299894e-04  -2.9086563675429240e-03  -5.1584929853632135e-03  -7.2483452159766253e-03  -9.0012080611509906e-03  -1.0297330523293154e-02  -1.1088603255569957e-02  -1.1398976658448709e-02  -1.1312573070876731e-02  -1.0954655825879024e-02  -1.0471158461539591e-02  -1.0010431638830702e-02  -9.7081107103300195e-03  -9.6744379857698522e-03  -9.9835046137892788e-03  -1.0664736123147235e-02  -1.1697392158564839e-02  -1.3008796859715982e-02  -1.4477105942640123e-02  -1.5939783851555454e-02  -1.7208867852350172e-02  -1.8092859885876410e-02  -1.8423007126154980e-02  -1.8079826249193128e-02  -1.7014822753977300e-02  -1.5262689690565814e-02  -1.2940762166789264e-02  -1.0234977098243246e-02  -7.3745373381308519e-03  -4.5999203951334403e-03  -2.1298163130118748e-03  -1.3185894297689478e-04  1.2994762140015991e-03  2.1555206192154942e-03  2.5146564260724925e-03  2.5306026032801371e-03  2.4077792279792341e-03  2.3667069014222993e-03  2.6053742671644062e-03  3.2638938941794513e-03  4.3990361040578763e-03  5.9731455027350619e-03  7.8594029880747658e-03  9.8626810961126455e-03  1.1752515421960173e-02  1.3302514191276047e-02  1.4329340462422872e-02  1.4724279457265168e-02  1.4471402008581680e-02  1.3648817277222657e-02  1.2413400427964450e-02  1.0973389350889165e-02  9.5554829910344443e-03  8.3726362893558441e-03  7.5962864704551261e-03  7.3326714879499389e-03  1.2520507833010869e-02  1.2674957148969688e-02  1.3124293070851428e-02  1.3814346079616536e-02  1.4672310550052133e-02  1.5619898036960643e-02  1.6583891286332683e-02  1.7500248167184949e-02  1.8310913436869688e-02  1.8955476049725493e-02  1.9361826703029980e-02  1.9440634042958108e-02  1.9087518254493587e-02  1.8194248762847427e-02  1.6666860911448568e-02  1.4445833159587196e-02  1.1522869917301193e-02  7.9505444516311686e-03  3.8436223104099890e-03  -6.2750719699033108e-04  -5.2507051758291711e-03  -9.7926997689535191e-03  -1.4024508088031474e-02  -1.7747012914474752e-02  -2.0810063478706519e-02  -2.3119573198031113e-02  -2.4631652971520410e-02  -2.5338561392798047e-02  -2.5254695339459721e-02  -2.4409771133725940e-02  -2.2851400306584415e-02  -2.0653517159279950e-02  -1.7923955072777574e-02  -1.4805392101865518e-02  -1.1467775247469661e-02  -8.0945389633201078e-03  -4.8671716112821837e-03  -1.9522729638606691e-03  5.0697605256555740e-04  2.3955707243708043e-03  3.6299073861289595e-03  4.1617050514056860e-03  3.9834512276885970e-03  3.1343216323959245e-03  1.7041167181121957e-03  -1.6777017512511949e-04  -2.3009815922918416e-03  -4.4916968118525486e-03  -6.5377551935009298e-03  -8.2669483364059097e-03  -9.5616864950653999e-03  -1.0373495575271089e-02  -1.0724021965252318e-02  -1.0693831552296484e-02  -1.0403802892653498e-02  -9.9947045793748936e-03  -9.6088181251600350e-03  -9.3748791364867638e-03  -9.3959492857734056e-03  -9.7396978569285250e-03  -1.0431167378604259e-02  -1.1448394147907296e-02  -1.2721194799005988e-02  -1.4133674257678917e-02  -1.5531670422477379e-02  -1.6736556619952752e-02  -1.7565712137078696e-02  -1.7857758812526790e-02  -1.7498486546809886e-02  -1.6442297847502271e-02  -1.4724329074979775e-02  -1.2459990712489140e-02  -9.8311872919096873e-03  -7.0613852745445823e-03  -4.3840951470412257e-03  -2.0103226198790137e-03  -9.9931623799694614e-05  1.2595784291470668e-03  2.0645761095024451e-03  2.3953636890852214e-03  2.4037026745742478e-03  2.2882649632900019e-03  2.2611023192666189e-03  2.5108216026646299e-03  3.1692980771252264e-03  4.2879959205285320e-03  5.8279989034794467e-03  7.6655176778987477e-03  9.6121541286236997e-03  1.1446631885860837e-02  1.2952531500379914e-02  1.3955377177930172e-02  1.4352377497001401e-02  1.4129234726463442e-02  1.3360896182321806e-02  1.2196777203434952e-02  1.0834668272771433e-02  9.4895543010711254e-03  8.3631214394608647e-03  7.6176101115691761e-03  7.3556155923888708e-03  1.2848597329710287e-02  1.2988708239418929e-02  1.3405868435003149e-02  1.4050970601225288e-02  1.4855468015944171e-02  1.5743962185047700e-02  1.6643853791711828e-02  1.7489093629253286e-02  1.8217693218369049e-02  1.8765185707532654e-02  1.9057765954302537e-02  1.9009096980550328e-02  1.8523704915763439e-02  1.7507630017619385e-02  1.5884214295200663e-02  1.3610852145031027e-02  1.0692339718292948e-02  7.1880969618772451e-03  3.2126522557043261e-03  -1.0701717161329277e-03  -5.4592258685258049e-03  -9.7343150577241834e-03  -1.3679662693739015e-02  -1.7108541224311546e-02  -1.9882593438553087e-02  -2.1919850191698152e-02  -2.3189583169070927e-02  -2.3697930489646555e-02  -2.3472236011173618e-02  -2.2551722661736190e-02  -2.0987681079872630e-02  -1.8850603037889019e-02  -1.6238066096125506e-02  -1.3277459418706519e-02  -1.0121018356809151e-02  -6.9346534367495487e-03  -3.8844635945406080e-03  -1.1248081044932042e-03  1.2100007579141699e-03  3.0106525831068930e-03  4.1963292592572324e-03  4.7187886654741409e-03  4.5678740389645256e-03  3.7774782436092659e-03  2.4295969392540934e-03  6.5361069325046571e-04  -1.3816584381291764e-03  -3.4842671143073723e-03  -5.4627006153887348e-03  -7.1526028589643520e-03  -8.4404344291045506e-03  -9.2778678190395675e-03  -9.6835117023473406e-03  -9.7327600447259643e-03  -9.5399810976416043e-03  -9.2383402011473534e-03  -8.9613009420915647e-03  -8.8275970465971128e-03  -8.9297719922403433e-03  -9.3258895222922793e-03  -1.0034174769705827e-02  -1.1030352225754519e-02  -1.2247354277422372e-02  -1.3577560519872502e-02  -1.4878831508889931e-02  -1.5986245918882116e-02  -1.6730521843825445e-02  -1.6961712217211749e-02  -1.6574206499178019e-02  -1.5527685917236628e-02  -1.3858978605508767e-02  -1.1681499940276858e-02  -9.1716089160255327e-03  -6.5441063442060136e-03  -4.0214155964368135e-03  -1.8019570550088118e-03  -3.2693043101468663e-05  1.2105616728649831e-03  1.9327762494583288e-03  2.2178879999338536e-03  2.2150606575579760e-03  2.1141393030333078e-03  2.1136749400801373e-03  2.3869043591592184e-03  3.0517771575141899e-03  4.1502523935301504e-03  5.6402964119805768e-03  7.4019961499774429e-03  9.2570601722714758e-03  1.0998663563892046e-02  1.2426526161437669e-02  1.3380950619047297e-02  1.3769593189562489e-02  1.3581992347025515e-02  1.2889329661961258e-02  1.1830250339913244e-02  1.0586771591829436e-02  9.3559454511292026e-03  8.3224313109627693e-03  7.6353083215801943e-03  7.3908968916651038e-03  1.3221662447609951e-02  1.3344613227272569e-02  1.3718356915704196e-02  1.4299516714400228e-02  1.5025895721189366e-02  1.5827329250072852e-02  1.6633820503126350e-02  1.7378576279089245e-02  1.7996115182449875e-02  1.8417760100834756e-02  1.8567798385521098e-02  1.8363310709271431e-02  1.7719368490189704e-02  1.6559328614455738e-02  1.4827936203914796e-02  1.2503817511757319e-02  9.6083733521338758e-03  6.2097257662941576e-03  2.4219338168992919e-03  -1.6000132113092966e-03  -5.6698253256049465e-03  -9.5852103742936918e-03  -1.3148682418518373e-02  -1.6190640623567391e-02  -1.8588533884789534e-02  -2.0275727467790158e-02  -2.1237263986548783e-02  -2.1495428856121653e-02  -2.1092542505303586e-02  -2.0078925326440632e-02  -1.8510241170553929e-02  -1.6452841490669834e-02  -1.3991695925319413e-02  -1.1235045545601429e-02  -8.3126067315529347e-03  -5.3678141187840454e-03  -2.5470692641590470e-03  1.0638787294165881e-05  2.1816623930612394e-03  3.8630425903702788e-03  4.9766625381945087e-03  5.4739037079773603e-03  5.3414892159200679e-03  4.6075498028067775e-03  3.3456533873010902e-03  1.6741611502296317e-03  -2.5121535995732637e-04  -2.2525298109347053e-03  -4.1512778694683672e-03  -5.7930719570885997e-03  -7.0698136388151313e-03  -7.9337478758266938e-03  -8.4000039282724724e-03  -8.5378394321519724e-03  -8.4539992852625378e-03  -8.2729817798860954e-03  -8.1183791333358651e-03  -8.0977169438930536e-03  -8.2915666004127805e-03  -8.7467909686299410e-03  -9.4733623903041648e-03  -1.0443796314896375e-02  -1.1594088630842939e-02  -1.2825813533469684e-02  -1.4010659185897636e-02  -1.4999840643235077e-02  -1.5640137040233409e-02  -1.5795734526134312e-02  -1.5372064882383442e-02  -1.4336078779118569e-02  -1.2727624244252785e-02  -1.0658528347150137e-02  -8.2988371014945800e-03  -5.8526154184151908e-03  -3.5279315204424350e-03  -1.5065265496545239e-03  8.1874624596651115e-05  1.1770314492537135e-03  1.7952830647343979e-03  2.0253036563572220e-03  2.0127850298276629e-03  1.9359346789803696e-03  1.9755016065562208e-03  2.2843610604294478e-03  2.9618368383496634e-03  4.0369107067187429e-03  5.4628803711691976e-03  7.1243940709089029e-03  8.8560634049144309e-03  1.0469880930173767e-02  1.1786799657977437e-02  1.2666758341692817e-02  1.3031581242987119e-02  1.2876551933828039e-02  1.2268869759610904e-02  1.1334185605043869e-02  1.0235025418872765e-02  9.1460600687265740e-03  8.2305367016929087e-03  7.6205528010086692e-03  7.4024821834828324e-03  1.3560909269073398e-02  1.3663456754217995e-02  1.3982325109069682e-02  1.4480535211322967e-02  1.5103920353202321e-02  1.5789819176536761e-02  1.6473273789038144e-02  1.7088974542356496e-02  1.7569683342151001e-02  1.7843650249017243e-02  1.7833920894801167e-02  1.7461525020928112e-02  1.6652888615674120e-02  1.5350052535007454e-02  1.3521060835865338e-02  1.1167814324493304e-02  8.3299044830632604e-03  5.0846948822308759e-03  1.5449035998064738e-03  -2.1456437360088312e-03  -5.8190606994099458e-03  -9.2952548439667170e-03  -1.2399479501559943e-02  -1.4983224787032371e-02  -1.6942708910849529e-02  -1.8228371040417964e-02  -1.8841698314596877e-02  -1.8821175633491029e-02  -1.8224006356080031e-02  -1.7111600342732906e-02  -1.5543936464268616e-02  -1.3582718664284588e-02  -1.1298951780053161e-02  -8.7793819118459002e-03  -6.1281177693721369e-03  -3.4628648471806763e-03  -9.0760231156465448e-04  1.4157107919969484e-03  3.3945130623611189e-03  4.9316240988153421e-03  5.9505991119954684e-03  6.4015584628644819e-03  6.2677960983810203e-03  5.5720665186121676e-03  4.3803844100454743e-03  2.8010311563231257e-03  9.7716484626306438e-04  -9.2735491079875177e-04  -2.7477254660324981e-03  -4.3404978354773145e-03  -5.6038480123079600e-03  -6.4910165141897538e-03  -7.0136755720543696e-03  -7.2348263635304746e-03  -7.2536522989359500e-03  -7.1864092558904680e-03  -7.1475358172270829e-03  -7.2340934398874577e-03  -7.5151474105578158e-03  -8.0263577267508206e-03  -8.7689622133016766e-03  -9.7114533948268935e-03  -1.0791996247221500e-02  -1.1920672032007328e-02  -1.2982758666985962e-02  -1.3845943994983921e-02  -1.4373957267141220e-02  -1.4446426031896784e-02  -1.3981368786417040e-02  -1.2954587091277383e-02  -1.1410332658165384e-02  -9.4597313776640223e-03  -7.2665754908565004e-03  -5.0231784782029639e-03  -2.9211460904978344e-03  -1.1226328548116448e-03  2.6302728585835016e-04  1.1939066233775985e-03  1.6994581846692201e-03  1.8734819415090506e-03  1.8571438992557644e-03  1.8146905237627310e-03  1.9058707232791764e-03  2.2596822668113185e-03  2.9536181545033444e-03  4.0013790171703227e-03  5.3506362166945379e-03  6.8911967647471220e-03  8.4726353509152474e-03  9.9288830093369942e-03  1.1105683625991075e-02  1.1885923135274673e-02  1.2208084257023653e-02  1.2074510251841591e-02  1.1548460551024891e-02  1.0741508725122983e-02  9.7948045560267046e-03  8.8583403489817698e-03  8.0715718717798094e-03  7.5473181740250087e-03  7.3597679894026645e-03  1.3767631368302113e-02  1.3847517013497235e-02  1.4102154380167735e-02  1.4501387158050594e-02  1.5000204279267878e-02  1.5545266952175426e-02  1.6079051992258269e-02  1.6540477266986986e-02  1.6863302163190451e-02  1.6975089013422182e-02  1.6799360716557993e-02  1.6262047602671217e-02  1.5301236974972083e-02  1.3877575839992565e-02  1.1982183978466194e-02  9.6399462766529401e-03  6.9081631589658857e-03  3.8725173749869181e-03  6.4278719320258004e-04  -2.6507457565935113e-03  -5.8616795622604377e-03  -8.8356258163899970e-03  -1.1424046172715085e-02  -1.3502378609220048e-02  -1.4987310234254479e-02  -1.5846599326593477e-02  -1.6097092667014354e-02  -1.5791600027499752e-02  -1.5000272327819626e-02  -1.3794188362926858e-02  -1.2236901557001518e-02  -1.0385142356252854e-02  -8.2955573272534121e-03  -6.0325487222095669e-03  -3.6732546901436266e-03  -1.3080965048993111e-03  9.6256135549264684e-04  3.0341045914979870e-03  4.8042902116341522e-03  6.1801029119526191e-03  7.0849160434965901e-03  7.4662266673917966e-03  7.3036022400102671e-03  6.6154007940750067e-03  5.4621401090995869e-03  3.9446350568936661e-03  2.1960165426457606e-03  3.6795690296887991e-04  -1.3874284898434397e-03  -2.9374299137084709e-03  -4.1868262664617279e-03  -5.0904120456529119e-03  -5.6570616561627558e-03  -5.9443670514842907e-03  -6.0451866650039730e-03  -6.0692938297998156e-03  -6.1241771002149220e-03  -6.2987618130215224e-03  -6.6526005751832854e-03  -7.2113672326419792e-03  -7.9677153768572626e-03  -8.8851460776167221e-03  -9.9021261216132739e-03  -1.0934936706489895e-02  -1.1880268616403995e-02  -1.2620727303774842e-02  -1.3036317185363397e-02  -1.3022305010965476e-02  -1.2510176641474679e-02  -1.1485887743006840e-02  -9.9995434920452861e-03  -8.1628653826687943e-03  -6.1342128291638938e-03  -4.0942202702538861e-03  -2.2172632294893226e-03  -6.4448891023709471e-04  5.3679255733859554e-04  1.3042765859746742e-03  1.7011019773917886e-03  1.8258771434255504e-03  1.8141545853734248e-03  1.8146419602289479e-03  1.9643366192878845e-03  2.3667158826833762e-03  3.0761405204216418e-03  4.0902575510370926e-03  5.3510029685043441e-03  6.7539474740002129e-03  8.1648664540325110e-03  9.4412627479654506e-03  1.0455357394373027e-02  1.1114396581948642e-02  1.1374473800012797e-02  1.1245476650121560e-02  1.0786868122596084e-02  1.0096120890646335e-02  9.2929598479472263e-03  8.5026754766524219e-03  7.8408674133945387e-03  7.4008165061700999e-03  7.2439552252181955e-03  1.3734344278620947e-02  1.3791008726505306e-02  1.3976283525341002e-02  1.4266727093909616e-02  1.4626764672484534e-02  1.5013305785781699e-02  1.5378020181334533e-02  1.5666658780349833e-02  1.5817179286653316e-02  1.5759736935520623e-02  1.5421049280062174e-02  1.4733550833610562e-02  1.3647220018854173e-02  1.2140271566875768e-02  1.0224981199915882e-02  7.9468896647835983e-03  5.3786274373443651e-03  2.6119060961873287e-03  -2.4868495451698552e-04  -3.0887297443797524e-03  -5.7857573153942219e-03  -8.2135551064739971e-03  -1.0252002717231075e-02  -1.1801992488083571e-02  -1.2801019012430614e-02  -1.3233051650317990e-02  -1.3127850075000716e-02  -1.2549314777087338e-02  -1.1577349674661593e-02  -1.0290314715859700e-02  -8.7541414271410847e-03  -7.0204601329524139e-03  -5.1320135825659568e-03  -3.1313453168591169e-03  -1.0688242376038946e-03  9.9243061497098373e-04  2.9755314673317835e-03  4.7924663077499666e-03  6.3497299246478749e-03  7.5562250479607584e-03  8.3327970101185912e-03  8.6226299711216221e-03  8.4011819111893607e-03  7.6836464107246111e-03  6.5277664610000679e-03  5.0305986582250542e-03  3.3192142826150737e-03  1.5365842396261608e-03  -1.7540911460285774e-04  -1.6935980637191345e-03  -2.9293239648919170e-03  -3.8397595761260556e-03  -4.4323794815103778e-03  -4.7611889895139122e-03  -4.9149747111992114e-03  -4.9997601954398802e-03  -5.1192248980869992e-03  -5.3574052125150151e-03  -5.7671773454976392e-03  -6.3660568573085429e-03  -7.1384450255865574e-03  -8.0414887741310816e-03  -9.0111054580557463e-03  -9.9660439909835564e-03  -1.0810639641694056e-02  -1.1439407578882387e-02  -1.1746861343318989e-02  -1.1643446540906651e-02  -1.1074705162213351e-02  -1.0038003668022379e-02  -8.5908723473041085e-03  -6.8472333819996813e-03  -4.9614186292933913e-03  -3.1034023554440716e-03  -1.4308803281806470e-03  -6.4165954956844944e-05  9.3139871694306498e-04  1.5528857919821055e-03  1.8565016575461681e-03  1.9447383888070713e-03  1.9465846229964512e-03  1.9945670761987179e-03  2.2028062312395946e-03  2.6496556868741174e-03  3.3671063804368872e-03  4.3376612621846651e-03  5.4983832599379903e-03  6.7512881343349878e-03  7.9787666795316028e-03  9.0619777639875457e-03  9.8993430054851294e-03  1.0421895397507992e-02  1.0602678705936860e-02  1.0458700974973393e-02  1.0045759095678229e-02  9.4480894277462427e-03  8.7655618583149970e-03  8.1008019044324694e-03  7.5476588461588076e-03  7.1815877499140307e-03  7.0522056461406191e-03  1.3360564903689143e-02  1.3395436917573085e-02  1.3511988645536042e-02  1.3692703194929483e-02  1.3910670546202614e-02  1.413273303409