<?xml version="1.0"?>
<VTKFile type="UnstructuredGrid"  version="0.1"  >
<UnstructuredGrid>
<Piece  NumberOfPoints="10201" NumberOfCells="20000">
<Points>
<DataArray  type="Float64"  NumberOfComponents="3"  format="ascii">0 0 0  0.25 0 0  0.5 0 0  0.75 0 0  1 0 0  1.25 0 0  1.5 0 0  1.75 0 0  2 0 0  2.25 0 0  2.5 0 0  2.75 0 0  3 0 0  3.25 0 0  3.5 0 0  3.75 0 0  4 0 0  4.25 0 0  4.5 0 0  4.75 0 0  5 0 0  5.25 0 0  5.5 0 0  5.75 0 0  6 0 0  6.25 0 0  6.5 0 0  6.75 0 0  7 0 0  7.25 0 0  7.5 0 0  7.75 0 0  8 0 0  8.25 0 0  8.5 0 0  8.75 0 0  9 0 0  9.25 0 0  9.5 0 0  9.75 0 0  10 0 0  10.25 0 0  10.5 0 0  10.75 0 0  11 0 0  11.25 0 0  11.5 0 0  11.75 0 0  12 0 0  12.25 0 0  12.5 0 0  12.75 0 0  13 0 0  13.25 0 0  13.5 0 0  13.75 0 0  14 0 0  14.25 0 0  14.5 0 0  14.75 0 0  15 0 0  15.25 0 0  15.5 0 0  15.75 0 0  16 0 0  16.25 0 0  16.5 0 0  16.75 0 0  17 0 0  17.25 0 0  17.5 0 0  17.75 0 0  18 0 0  18.25 0 0  18.5 0 0  18.75 0 0  19 0 0  19.25 0 0  19.5 0 0  19.75 0 0  20 0 0  20.25 0 0  20.5 0 0  20.75 0 0  21 0 0  21.25 0 0  21.5 0 0  21.75 0 0  22 0 0  22.25 0 0  22.5 0 0  22.75 0 0  23 0 0  23.25 0 0  23.5 0 0  23.75 0 0  24 0 0  24.25 0 0  24.5 0 0  24.75 0 0  25 0 0  0 0.25 0  0.25 0.25 0  0.5 0.25 0  0.75 0.25 0  1 0.25 0  1.25 0.25 0  1.5 0.25 0  1.75 0.25 0  2 0.25 0  2.25 0.25 0  2.5 0.25 0  2.75 0.25 0  3 0.25 0  3.25 0.25 0  3.5 0.25 0  3.75 0.25 0  4 0.25 0  4.25 0.25 0  4.5 0.25 0  4.75 0.25 0  5 0.25 0  5.25 0.25 0  5.5 0.25 0  5.75 0.25 0  6 0.25 0  6.25 0.25 0  6.5 0.25 0  6.75 0.25 0  7 0.25 0  7.25 0.25 0  7.5 0.25 0  7.75 0.25 0  8 0.25 0  8.25 0.25 0  8.5 0.25 0  8.75 0.25 0  9 0.25 0  9.25 0.25 0  9.5 0.25 0  9.75 0.25 0  10 0.25 0  10.25 0.25 0  10.5 0.25 0  10.75 0.25 0  11 0.25 0  11.25 0.25 0  11.5 0.25 0  11.75 0.25 0  12 0.25 0  12.25 0.25 0  12.5 0.25 0  12.75 0.25 0  13 0.25 0  13.25 0.25 0  13.5 0.25 0  13.75 0.25 0  14 0.25 0  14.25 0.25 0  14.5 0.25 0  14.75 0.25 0  15 0.25 0  15.25 0.25 0  15.5 0.25 0  15.75 0.25 0  16 0.25 0  16.25 0.25 0  16.5 0.25 0  16.75 0.25 0  17 0.25 0  17.25 0.25 0  17.5 0.25 0  17.75 0.25 0  18 0.25 0  18.25 0.25 0  18.5 0.25 0  18.75 0.25 0  19 0.25 0  19.25 0.25 0  19.5 0.25 0  19.75 0.25 0  20 0.25 0  20.25 0.25 0  20.5 0.25 0  20.75 0.25 0  21 0.25 0  21.25 0.25 0  21.5 0.25 0  21.75 0.25 0  22 0.25 0  22.25 0.25 0  22.5 0.25 0  22.75 0.25 0  23 0.25 0  23.25 0.25 0  23.5 0.25 0  23.75 0.25 0  24 0.25 0  24.25 0.25 0  24.5 0.25 0  24.75 0.25 0  25 0.25 0  0 0.5 0  0.25 0.5 0  0.5 0.5 0  0.75 0.5 0  1 0.5 0  1.25 0.5 0  1.5 0.5 0  1.75 0.5 0  2 0.5 0  2.25 0.5 0  2.5 0.5 0  2.75 0.5 0  3 0.5 0  3.25 0.5 0  3.5 0.5 0  3.75 0.5 0  4 0.5 0  4.25 0.5 0  4.5 0.5 0  4.75 0.5 0  5 0.5 0  5.25 0.5 0  5.5 0.5 0  5.75 0.5 0  6 0.5 0  6.25 0.5 0  6.5 0.5 0  6.75 0.5 0  7 0.5 0  7.25 0.5 0  7.5 0.5 0  7.75 0.5 0  8 0.5 0  8.25 0.5 0  8.5 0.5 0  8.75 0.5 0  9 0.5 0  9.25 0.5 0  9.5 0.5 0  9.75 0.5 0  10 0.5 0  10.25 0.5 0  10.5 0.5 0  10.75 0.5 0  11 0.5 0  11.25 0.5 0  11.5 0.5 0  11.75 0.5 0  12 0.5 0  12.25 0.5 0  12.5 0.5 0  12.75 0.5 0  13 0.5 0  13.25 0.5 0  13.5 0.5 0  13.75 0.5 0  14 0.5 0  14.25 0.5 0  14.5 0.5 0  14.75 0.5 0  15 0.5 0  15.25 0.5 0  15.5 0.5 0  15.75 0.5 0  16 0.5 0  16.25 0.5 0  16.5 0.5 0  16.75 0.5 0  17 0.5 0  17.25 0.5 0  17.5 0.5 0  17.75 0.5 0  18 0.5 0  18.25 0.5 0  18.5 0.5 0  18.75 0.5 0  19 0.5 0  19.25 0.5 0  19.5 0.5 0  19.75 0.5 0  20 0.5 0  20.25 0.5 0  20.5 0.5 0  20.75 0.5 0  21 0.5 0  21.25 0.5 0  21.5 0.5 0  21.75 0.5 0  22 0.5 0  22.25 0.5 0  22.5 0.5 0  22.75 0.5 0  23 0.5 0  23.25 0.5 0  23.5 0.5 0  23.75 0.5 0  24 0.5 0  24.25 0.5 0  24.5 0.5 0  24.75 0.5 0  25 0.5 0  0 0.75 0  0.25 0.75 0  0.5 0.75 0  0.75 0.75 0  1 0.75 0  1.25 0.75 0  1.5 0.75 0  1.75 0.75 0  2 0.75 0  2.25 0.75 0  2.5 0.75 0  2.75 0.75 0  3 0.75 0  3.25 0.75 0  3.5 0.75 0  3.75 0.75 0  4 0.75 0  4.25 0.75 0  4.5 0.75 0  4.75 0.75 0  5 0.75 0  5.25 0.75 0  5.5 0.75 0  5.75 0.75 0  6 0.75 0  6.25 0.75 0  6.5 0.75 0  6.75 0.75 0  7 0.75 0  7.25 0.75 0  7.5 0.75 0  7.75 0.75 0  8 0.75 0  8.25 0.75 0  8.5 0.75 0  8.75 0.75 0  9 0.75 0  9.25 0.75 0  9.5 0.75 0  9.75 0.75 0  10 0.75 0  10.25 0.75 0  10.5 0.75 0  10.75 0.75 0  11 0.75 0  11.25 0.75 0  11.5 0.75 0  11.75 0.75 0  12 0.75 0  12.25 0.75 0  12.5 0.75 0  12.75 0.75 0  13 0.75 0  13.25 0.75 0  13.5 0.75 0  13.75 0.75 0  14 0.75 0  14.25 0.75 0  14.5 0.75 0  14.75 0.75 0  15 0.75 0  15.25 0.75 0  15.5 0.75 0  15.75 0.75 0  16 0.75 0  16.25 0.75 0  16.5 0.75 0  16.75 0.75 0  17 0.75 0  17.25 0.75 0  17.5 0.75 0  17.75 0.75 0  18 0.75 0  18.25 0.75 0  18.5 0.75 0  18.75 0.75 0  19 0.75 0  19.25 0.75 0  19.5 0.75 0  19.75 0.75 0  20 0.75 0  20.25 0.75 0  20.5 0.75 0  20.75 0.75 0  21 0.75 0  21.25 0.75 0  21.5 0.75 0  21.75 0.75 0  22 0.75 0  22.25 0.75 0  22.5 0.75 0  22.75 0.75 0  23 0.75 0  23.25 0.75 0  23.5 0.75 0  23.75 0.75 0  24 0.75 0  24.25 0.75 0  24.5 0.75 0  24.75 0.75 0  25 0.75 0  0 1 0  0.25 1 0  0.5 1 0  0.75 1 0  1 1 0  1.25 1 0  1.5 1 0  1.75 1 0  2 1 0  2.25 1 0  2.5 1 0  2.75 1 0  3 1 0  3.25 1 0  3.5 1 0  3.75 1 0  4 1 0  4.25 1 0  4.5 1 0  4.75 1 0  5 1 0  5.25 1 0  5.5 1 0  5.75 1 0  6 1 0  6.25 1 0  6.5 1 0  6.75 1 0  7 1 0  7.25 1 0  7.5 1 0  7.75 1 0  8 1 0  8.25 1 0  8.5 1 0  8.75 1 0  9 1 0  9.25 1 0  9.5 1 0  9.75 1 0  10 1 0  10.25 1 0  10.5 1 0  10.75 1 0  11 1 0  11.25 1 0  11.5 1 0  11.75 1 0  12 1 0  12.25 1 0  12.5 1 0  12.75 1 0  13 1 0  13.25 1 0  13.5 1 0  13.75 1 0  14 1 0  14.25 1 0  14.5 1 0  14.75 1 0  15 1 0  15.25 1 0  15.5 1 0  15.75 1 0  16 1 0  16.25 1 0  16.5 1 0  16.75 1 0  17 1 0  17.25 1 0  17.5 1 0  17.75 1 0  18 1 0  18.25 1 0  18.5 1 0  18.75 1 0  19 1 0  19.25 1 0  19.5 1 0  19.75 1 0  20 1 0  20.25 1 0  20.5 1 0  20.75 1 0  21 1 0  21.25 1 0  21.5 1 0  21.75 1 0  22 1 0  22.25 1 0  22.5 1 0  22.75 1 0  23 1 0  23.25 1 0  23.5 1 0  23.75 1 0  24 1 0  24.25 1 0  24.5 1 0  24.75 1 0  25 1 0  0 1.25 0  0.25 1.25 0  0.5 1.25 0  0.75 1.25 0  1 1.25 0  1.25 1.25 0  1.5 1.25 0  1.75 1.25 0  2 1.25 0  2.25 1.25 0  2.5 1.25 0  2.75 1.25 0  3 1.25 0  3.25 1.25 0  3.5 1.25 0  3.75 1.25 0  4 1.25 0  4.25 1.25 0  4.5 1.25 0  4.75 1.25 0  5 1.25 0  5.25 1.25 0  5.5 1.25 0  5.75 1.25 0  6 1.25 0  6.25 1.25 0  6.5 1.25 0  6.75 1.25 0  7 1.25 0  7.25 1.25 0  7.5 1.25 0  7.75 1.25 0  8 1.25 0  8.25 1.25 0  8.5 1.25 0  8.75 1.25 0  9 1.25 0  9.25 1.25 0  9.5 1.25 0  9.75 1.25 0  10 1.25 0  10.25 1.25 0  10.5 1.25 0  10.75 1.25 0  11 1.25 0  11.25 1.25 0  11.5 1.25 0  11.75 1.25 0  12 1.25 0  12.25 1.25 0  12.5 1.25 0  12.75 1.25 0  13 1.25 0  13.25 1.25 0  13.5 1.25 0  13.75 1.25 0  14 1.25 0  14.25 1.25 0  14.5 1.25 0  14.75 1.25 0  15 1.25 0  15.25 1.25 0  15.5 1.25 0  15.75 1.25 0  16 1.25 0  16.25 1.25 0  16.5 1.25 0  16.75 1.25 0  17 1.25 0  17.25 1.25 0  17.5 1.25 0  17.75 1.25 0  18 1.25 0  18.25 1.25 0  18.5 1.25 0  18.75 1.25 0  19 1.25 0  19.25 1.25 0  19.5 1.25 0  19.75 1.25 0  20 1.25 0  20.25 1.25 0  20.5 1.25 0  20.75 1.25 0  21 1.25 0  21.25 1.25 0  21.5 1.25 0  21.75 1.25 0  22 1.25 0  22.25 1.25 0  22.5 1.25 0  22.75 1.25 0  23 1.25 0  23.25 1.25 0  23.5 1.25 0  23.75 1.25 0  24 1.25 0  24.25 1.25 0  24.5 1.25 0  24.75 1.25 0  25 1.25 0  0 1.5 0  0.25 1.5 0  0.5 1.5 0  0.75 1.5 0  1 1.5 0  1.25 1.5 0  1.5 1.5 0  1.75 1.5 0  2 1.5 0  2.25 1.5 0  2.5 1.5 0  2.75 1.5 0  3 1.5 0  3.25 1.5 0  3.5 1.5 0  3.75 1.5 0  4 1.5 0  4.25 1.5 0  4.5 1.5 0  4.75 1.5 0  5 1.5 0  5.25 1.5 0  5.5 1.5 0  5.75 1.5 0  6 1.5 0  6.25 1.5 0  6.5 1.5 0  6.75 1.5 0  7 1.5 0  7.25 1.5 0  7.5 1.5 0  7.75 1.5 0  8 1.5 0  8.25 1.5 0  8.5 1.5 0  8.75 1.5 0  9 1.5 0  9.25 1.5 0  9.5 1.5 0  9.75 1.5 0  10 1.5 0  10.25 1.5 0  10.5 1.5 0  10.75 1.5 0  11 1.5 0  11.25 1.5 0  11.5 1.5 0  11.75 1.5 0  12 1.5 0  12.25 1.5 0  12.5 1.5 0  12.75 1.5 0  13 1.5 0  13.25 1.5 0  13.5 1.5 0  13.75 1.5 0  14 1.5 0  14.25 1.5 0  14.5 1.5 0  14.75 1.5 0  15 1.5 0  15.25 1.5 0  15.5 1.5 0  15.75 1.5 0  16 1.5 0  16.25 1.5 0  16.5 1.5 0  16.75 1.5 0  17 1.5 0  17.25 1.5 0  17.5 1.5 0  17.75 1.5 0  18 1.5 0  18.25 1.5 0  18.5 1.5 0  18.75 1.5 0  19 1.5 0  19.25 1.5 0  19.5 1.5 0  19.75 1.5 0  20 1.5 0  20.25 1.5 0  20.5 1.5 0  20.75 1.5 0  21 1.5 0  21.25 1.5 0  21.5 1.5 0  21.75 1.5 0  22 1.5 0  22.25 1.5 0  22.5 1.5 0  22.75 1.5 0  23 1.5 0  23.25 1.5 0  23.5 1.5 0  23.75 1.5 0  24 1.5 0  24.25 1.5 0  24.5 1.5 0  24.75 1.5 0  25 1.5 0  0 1.75 0  0.25 1.75 0  0.5 1.75 0  0.75 1.75 0  1 1.75 0  1.25 1.75 0  1.5 1.75 0  1.75 1.75 0  2 1.75 0  2.25 1.75 0  2.5 1.75 0  2.75 1.75 0  3 1.75 0  3.25 1.75 0  3.5 1.75 0  3.75 1.75 0  4 1.75 0  4.25 1.75 0  4.5 1.75 0  4.75 1.75 0  5 1.75 0  5.25 1.75 0  5.5 1.75 0  5.75 1.75 0  6 1.75 0  6.25 1.75 0  6.5 1.75 0  6.75 1.75 0  7 1.75 0  7.25 1.75 0  7.5 1.75 0  7.75 1.75 0  8 1.75 0  8.25 1.75 0  8.5 1.75 0  8.75 1.75 0  9 1.75 0  9.25 1.75 0  9.5 1.75 0  9.75 1.75 0  10 1.75 0  10.25 1.75 0  10.5 1.75 0  10.75 1.75 0  11 1.75 0  11.25 1.75 0  11.5 1.75 0  11.75 1.75 0  12 1.75 0  12.25 1.75 0  12.5 1.75 0  12.75 1.75 0  13 1.75 0  13.25 1.75 0  13.5 1.75 0  13.75 1.75 0  14 1.75 0  14.25 1.75 0  14.5 1.75 0  14.75 1.75 0  15 1.75 0  15.25 1.75 0  15.5 1.75 0  15.75 1.75 0  16 1.75 0  16.25 1.75 0  16.5 1.75 0  16.75 1.75 0  17 1.75 0  17.25 1.75 0  17.5 1.75 0  17.75 1.75 0  18 1.75 0  18.25 1.75 0  18.5 1.75 0  18.75 1.75 0  19 1.75 0  19.25 1.75 0  19.5 1.75 0  19.75 1.75 0  20 1.75 0  20.25 1.75 0  20.5 1.75 0  20.75 1.75 0  21 1.75 0  21.25 1.75 0  21.5 1.75 0  21.75 1.75 0  22 1.75 0  22.25 1.75 0  22.5 1.75 0  22.75 1.75 0  23 1.75 0  23.25 1.75 0  23.5 1.75 0  23.75 1.75 0  24 1.75 0  24.25 1.75 0  24.5 1.75 0  24.75 1.75 0  25 1.75 0  0 2 0  0.25 2 0  0.5 2 0  0.75 2 0  1 2 0  1.25 2 0  1.5 2 0  1.75 2 0  2 2 0  2.25 2 0  2.5 2 0  2.75 2 0  3 2 0  3.25 2 0  3.5 2 0  3.75 2 0  4 2 0  4.25 2 0  4.5 2 0  4.75 2 0  5 2 0  5.25 2 0  5.5 2 0  5.75 2 0  6 2 0  6.25 2 0  6.5 2 0  6.75 2 0  7 2 0  7.25 2 0  7.5 2 0  7.75 2 0  8 2 0  8.25 2 0  8.5 2 0  8.75 2 0  9 2 0  9.25 2 0  9.5 2 0  9.75 2 0  10 2 0  10.25 2 0  10.5 2 0  10.75 2 0  11 2 0  11.25 2 0 
[...]
<PointData  Scalars="f_23"> 
<DataArray  type="Float64"  Name="f_23"  format="ascii">1.8815738821490249e-02  1.8958428824995776e-02  1.9317626013012981e-02  1.9866164800460415e-02  2.0553564371965993e-02  2.1314276519059198e-02  2.2072882926177199e-02  2.2747543449572159e-02  2.3252013547486225e-02  2.3496929246116346e-02  2.3391484338162606e-02  2.2846674642186697e-02  2.1780862881073070e-02  2.0127642663393792e-02  1.7845110013077013e-02  1.4924979931400630e-02  1.1399722260863852e-02  7.3460837538000768e-03  2.8839143402700361e-03  -1.8300309081129233e-03  -6.6128193245310858e-03  -1.1269309781503117e-02  -1.5607434940130924e-02  -1.9452561571779176e-02  -2.2658903613669110e-02  -2.5116734157084840e-02  -2.6755276055646114e-02  -2.7542233515945772e-02  -2.7481521882498347e-02  -2.6610636213402154e-02  -2.4998392180716453e-02  -2.2742875151589577e-02  -1.9968799897730889e-02  -1.6823382914489524e-02  -1.3470228737807191e-02  -1.0081359134244117e-02  -6.8280398995099996e-03  -3.8712755462221179e-03  -1.3527409925717855e-03  6.1334127726772765e-04  1.9470833686836158e-03  2.6083060106544217e-03  2.5999750259540402e-03  1.9690393366487710e-03  8.0388887518983629e-04  -7.7220004528092713e-04  -2.6117724393104396e-03  -4.5574139045608131e-03  -6.4579537494220442e-03  -8.1844160807332030e-03  -9.6432346531694565e-03  -1.0784611382466688e-02  -1.1604803868275452e-02  -1.2142291871095862e-02  -1.2468829904084034e-02  -1.2677061779584170e-02  -1.2866568122376880e-02  -1.3130044440177114e-02  -1.3540959846891467e-02  -1.4143693993438046e-02  -1.4946875871849145e-02  -1.5920457327094201e-02  -1.6996902979783901e-02  -1.8076696385571373e-02  -1.9038067379060688e-02  -1.9750378769470216e-02  -2.0089988645423707e-02  -1.9956750141073523e-02  -1.9288825269406056e-02  -1.8073377453833948e-02  -1.6351090577420860e-02  -1.4213327234679078e-02  -1.1791931370368170e-02  -9.2429471679649124e-03  -6.7265899390923610e-03  -4.3864512762899124e-03  -2.3310558310153588e-03  -6.2053784421996303e-04  7.3953073161538597e-04  1.7961425798515994e-03  2.6388581898724242e-03  3.3832185713244833e-03  4.1500878258088339e-03  5.0442150190761594e-03  6.1355428375612000e-03  7.4464106235936347e-03  8.9468497732167317e-03  1.0558814708248262e-02  1.2168670072040522e-02  1.3645831480655147e-02  1.4864389169063337e-02  1.5724033249822807e-02  1.6166753144817997e-02  1.6186584113021214e-02  1.5830965004671377e-02  1.5193777668051181e-02  1.4401529512202785e-02  1.3595141829008863e-02  1.2910320585557290e-02  1.2459742902552712e-02  1.2321371948061996e-02  1.8849575484678381e-02  1.8971897739929831e-02  1.9319639278756504e-02  1.9856969726417418e-02  2.0531742427477889e-02  2.1278235327504263e-02  2.2021169856094990e-02  2.2678947381507195e-02  2.3165704976361914e-02  2.3392702046117472e-02  2.3270083482069263e-02  2.2710144640903179e-02  2.1632825181552691e-02  1.9973411528840371e-02  1.7691585075838300e-02  1.4780300655600997e-02  1.1272720928756357e-02  7.2456158300193427e-03  2.8181686757539036e-03  -1.8541398720549709e-03  -6.5901005427386880e-03  -1.1196554292421909e-02  -1.5483504281846165e-02  -1.9278363347352240e-02  -2.2437317140827785e-02  -2.4852519201355536e-02  -2.6454948161509950e-02  -2.7213849050226037e-02  -2.7134310037305921e-02  -2.6254451009284838e-02  -2.4643019304505638e-02  -2.2397286802384904e-02  -1.9640478842509787e-02  -1.6517823967007818e-02  -1.3190680655904494e-02  -9.8288136128131046e-03  -6.6014285115591868e-03  -3.6678126588691896e-03  -1.1683511345628047e-03  7.8355830236935770e-04  2.1083789928792195e-03  2.7658195187588784e-03  2.7582975833835739e-03  2.1318293094864942e-03  9.7357159114133901e-04  -5.9460947546559101e-04  -2.4266894949658765e-03  -4.3665337868963707e-03  -6.2639464805668722e-03  -7.9905186270230050e-03  -9.4528125648482113e-03  -1.0600760708580561e-02  -1.1430039862270917e-02  -1.1978336962091400e-02  -1.2316486950733209e-02  -1.2536151375434196e-02  -1.2735920194400938e-02  -1.3007553534858102e-02  -1.3423726352382667e-02  -1.4028271077096406e-02  -1.4829623401413970e-02  -1.5797975617767919e-02  -1.6866490579725203e-02  -1.7936757610240800e-02  -1.8888394823463581e-02  -1.9592255616718783e-02  -1.9926089732011092e-02  -1.9790858574631132e-02  -1.9125412038038053e-02  -1.7917108636062214e-02  -1.6206329864857431e-02  -1.4083693756028649e-02  -1.1679959029702336e-02  -9.1498766793068793e-03  -6.6523118913421322e-03  -4.3296082980418754e-03  -2.2893009650756702e-03  -5.9092977065893762e-04  7.6003885910342934e-04  1.8101906020655965e-03  2.6482317803131102e-03  3.3885573519993164e-03  4.1508163220559903e-03  5.0387222735528599e-03  6.1215856853491096e-03  7.4216680869096741e-03  8.9095225672875481e-03  1.0508151768873474e-02  1.2105315920546545e-02  1.3571921525739238e-02  1.4783367802313881e-02  1.5640222414642524e-02  1.6084746483622580e-02  1.6110573660943608e-02  1.5764116308867850e-02  1.5137753174334061e-02  1.4356220917957458e-02  1.3558601847018372e-02  1.2878711488123041e-02  1.2426467508240235e-02  1.2271552719490630e-02  1.8882657456200894e-02  1.8993435586807890e-02  1.9320947188228223e-02  1.9830726523569809e-02  2.0471265038386470e-02  2.1177702629847403e-02  2.1875728649100139e-02  2.2484769679040385e-02  2.2920181894079902e-02  2.3094901554696880e-02  2.2921490044031850e-02  2.2315572247518650e-02  2.1201288209944380e-02  1.9518687929928665e-02  1.7232236219369181e-02  1.4339017167687304e-02  1.0875012862647004e-02  6.9180127808336446e-03  2.5861976371926942e-03  -1.9679011791993374e-03  -6.5676435982035871e-03  -1.1025585224078250e-02  -1.5158090072112294e-02  -1.8799151811116552e-02  -2.1811441566049337e-02  -2.4093268460464008e-02  -2.5581210085587048e-02  -2.6249266519211646e-02  -2.6106071601569376e-02  -2.5191690567921452e-02  -2.3574904842786730e-02  -2.1350990961476309e-02  -1.8639294293427804e-02  -1.5579683885067001e-02  -1.2327270369765506e-02  -9.0453426366445024e-03  -5.8970135110546938e-03  -3.0363362167851538e-03  -5.9962505047069653e-04  1.3024868630394665e-03  2.5919027957069757e-03  3.2285089052161353e-03  3.2137490964280263e-03  2.5916610435440914e-03  1.4466063593278763e-03  -1.0291790812710233e-04  -1.9145240398879509e-03  -3.8356260813400510e-03  -5.7191254538488537e-03  -7.4389480949455557e-03  -8.9030267978565617e-03  -1.0061634477930412e-02  -1.0909816603620363e-02  -1.1483795379726075e-02  -1.1852278618549582e-02  -1.2104315680766932e-02  -1.2335588345382278e-02  -1.2634878818024848e-02  -1.3072098316004224e-02  -1.3688863605545287e-02  -1.4492282306115574e-02  -1.5452380679725510e-02  -1.6503453740246237e-02  -1.7549470077682230e-02  -1.8473429799936131e-02  -1.9150172503477954e-02  -1.9461555724299511e-02  -1.9312281386165944e-02  -1.8644142941613435e-02  -1.7446318984516488e-02  -1.5759688702871186e-02  -1.3673985852751534e-02  -1.1317787000294422e-02  -8.8425891655340393e-03  -6.4032899949203401e-03  -4.1380202864485030e-03  -2.1503949494785812e-03  -4.9687070208612844e-04  8.1886704464791788e-04  1.8435926136703819e-03  2.6645754634885403e-03  3.3934118340608940e-03  4.1461264466210873e-03  5.0227009562079797e-03  6.0893661865205825e-03  7.3666029051741629e-03  8.8248813420681756e-03  1.0388887137259883e-02  1.1949550172021277e-02  1.3381859201554986e-02  1.4565447931296799e-02  1.5404467628457251e-02  1.5843418041264632e-02  1.5876372054267052e-02  1.5548249412528477e-02  1.4948210147974738e-02  1.4196538204606510e-02  1.3427302144018962e-02  1.2769472747477516e-02  1.2329066250883406e-02  1.2174468385343855e-02  1.8888508442468508e-02  1.8987768938381531e-02  1.9287209705822650e-02  1.9754744709384420e-02  2.0340975164460227e-02  2.0983127910443038e-02  2.1608930591472141e-02  2.2139828273115988e-02  2.2493399262155669e-02  2.2585402127243741e-02  2.2332261179544892e-02  2.1654805260786659e-02  2.0483705893974757e-02  1.8766447661017323e-02  1.6475022628471135e-02  1.3613087960214860e-02  1.0221192659582167e-02  6.3788703842475617e-03  2.2028181792640242e-03  -2.1590748844291831e-03  -6.5374860634581141e-03  -1.0754218248447909e-02  -1.4635994904147001e-02  -1.8027548722452536e-02  -2.0802097701866584e-02  -2.2867872727430370e-02  -2.4170363315866361e-02  -2.4691038476694873e-02  -2.4444038814252302e-02  -2.3472425234168849e-02  -2.1845020958317200e-02  -1.9654013138755280e-02  -1.7012727346738685e-02  -1.4052676351877881e-02  -1.0919172866752419e-02  -7.7652943518465821e-03  -4.7445039859935834e-03  -2.0025412554102108e-03  3.3076000178517155e-04  2.1491916324954002e-03  3.3770219457937858e-03  3.9745763086662918e-03  3.9420159977377875e-03  3.3206107767599254e-03  2.1907371923311366e-03  6.6601394224546407e-04  -1.1165376556598653e-03  -3.0096997103887463e-03  -4.8712187801287074e-03  -6.5788602617441946e-03  -8.0430376833650011e-03  -9.2149798964160697e-03  -1.0089186258606400e-02  -1.0699993735276339e-02  -1.1113121947069744e-02  -1.1413792833638236e-02  -1.1693309970679435e-02  -1.2035870529673174e-02  -1.2507024144822416e-02  -1.3144760445701354e-02  -1.3953826361533936e-02  -1.4903604086594411e-02  -1.5929717578338123e-02  -1.6939419745955239e-02  -1.7820639585325284e-02  -1.8454233558465580e-02  -1.8728456457959151e-02  -1.8554039270377132e-02  -1.7877743541539811e-02  -1.6692088772246039e-02  -1.5039275662790542e-02  -1.3008155244120839e-02  -1.0724264510665929e-02  -8.3341978909369108e-03  -5.9866232646795872e-03  -3.8128596700409000e-03  -1.9100136700134663e-03  -3.2925339440471749e-04  9.2900133188520480e-04  1.9122359869874100e-03  2.7057545976705531e-03  3.4168710823518160e-03  4.1558256799160177e-03  5.0164485730251228e-03  6.0596900589057444e-03  7.3027115524756155e-03  8.7153433314683653e-03  1.0224508716727579e-02  1.1725888980355677e-02  1.3100880631028539e-02  1.4235993662521011e-02  1.5041430659272357e-02  1.5465763080315777e-02  1.5504357783195553e-02  1.5200355910964259e-02  1.4638320618632440e-02  1.3931864014013480e-02  1.3207399395614236e-02  1.2586531501211324e-02  1.2169542956906705e-02  1.2022150467107601e-02  1.8817218889346607e-02  1.8903349683951329e-02  1.9167273767259907e-02  1.9579423052979602e-02  2.0093406080165369e-02  2.0649654262784603e-02  2.1179098154133939e-02  2.1606366663578930e-02  2.1852442090998774e-02  2.1837167885330876e-02  2.1482265187600540e-02  2.0715448171628185e-02  1.9475861348268491e-02  1.7720536503497551e-02  1.5431076675363774e-02  1.2619484220821554e-02  9.3320304170297040e-03  5.6502773908354842e-03  1.6887106601424558e-03  -2.4111586084423100e-03  -6.4899236326467205e-03  -1.0381848687779985e-02  -1.3927551212126294e-02  -1.6986071732471242e-02  -1.9444542714106103e-02  -2.1224115367706412e-02  -2.2281711516413366e-02  -2.2608234177100835e-02  -2.2224667256474106e-02  -2.1177693280915982e-02  -1.9536013962793308e-02  -1.7387732857889127e-02  -1.4838365616171746e-02  -1.2008619759935802e-02  -9.0311374537493921e-03  -6.0457855973996937e-03  -3.1935535686906749e-03  -6.0946419631559767e-04  1.5849614068040986e-03  3.2891605840420493e-03  4.4304237484705114e-03  4.9697078287911844e-03  4.9057256473582838e-03  4.2765383282645291e-03  3.1578714654899366e-03  1.6576014170060797e-03  -9.3650798603136108e-05  -1.9551862371636145e-03  -3.7907762879021366e-03  -5.4831198195687209e-03  -6.9460033739174292e-03  -8.1322131500947293e-03  -9.0359689555711969e-03  -9.6896556741720916e-03  -1.0155636726335989e-02  -1.0514682319808495e-02  -1.0852885194212463e-02  -1.1248871810860771e-02  -1.1762767006381491e-02  -1.2427898699318615e-02  -1.3245781840928478e-02  -1.4184591582110108e-02  -1.5181152463917160e-02  -1.6146385211108363e-02  -1.6974049486960432e-02  -1.7552367157985509e-02  -1.7777644213503852e-02  -1.7568408340265858e-02  -1.6878053620171602e-02  -1.5703785953044141e-02  -1.4089965190146729e-02  -1.2124752480164419e-02  -9.9301319869562008e-03  -7.6466091823268858e-03  -5.4148977749391451e-03  -3.3574710588527303e-03  -1.5628780938357872e-03  -7.5250561407629328e-05  1.1094191366870746e-03  2.0397048188557404e-03  2.7984691565420519e-03  3.4874995081605833e-03  4.2094710471089975e-03  5.0500870919118574e-03  6.0632348714328875e-03  7.2615244637207971e-03  8.6137207957400555e-03  1.0049468831570039e-02  1.1470523451229807e-02  1.2766618514927023e-02  1.3833332006043740e-02  1.4588978851223011e-02  1.4987767099631030e-02  1.5027156185334860e-02  1.4748414384768527e-02  1.4230557208328208e-02  1.3578904740390618e-02  1.2910221741325159e-02  1.2336713708112467e-02  1.1951089557231247e-02  1.1814593880910130e-02  1.8604411535623189e-02  1.8675905372194185e-02  1.8898029081861795e-02  1.9243913726113893e-02  1.9670841381798906e-02  2.0123422133900226e-02  2.0536939927649659e-02  2.0840456599748924e-02  2.0959665819423892e-02  2.0819850194209327e-02  2.0349435955714444e-02  1.9484491328332729e-02  1.8174143036656140e-02  1.6386449675291948e-02  1.4113944798342113e-02  1.1377956658253096e-02  8.2309278735044709e-03  4.7562070019414732e-03  1.0650536251633133e-03  -2.7091612756200926e-03  -6.4193249579867460e-03  -9.9149410585535717e-03  -1.3053441138463186e-02  -1.5710985083753414e-02  -1.7791121387837207e-02  -1.9229985919961112e-02  -1.9997506630786862e-02  -2.0095101605520957e-02  -1.9551200872812934e-02  -1.8416236121162201e-02  -1.6758423694406561e-02  -1.4660910708717674e-02  -1.2220035708739451e-02  -9.5439177972232708e-03  -6.7504825021879721e-03  -3.9642863403371725e-03  -1.3119128052845967e-03  1.0839156213043491e-03  3.1111281604537244e-03  4.6754998950999729e-03  5.7076732769675278e-03  6.1693298771016538e-03  6.0577104377343583e-03  5.4076041561961124e-03  4.2900011881438606e-03  2.8068996410475725e-03  1.0822825416718597e-03  -7.5004634071064382e-04  -2.5603970086185124e-03  -4.2370096311101051e-03  -5.6976743441937002e-03  -6.8973138728905476e-03  -7.8303406515028845e-03  -8.5275232640917523e-03  -9.0480578655210853e-03  -9.4682993199609686e-03  -9.8690028367839459e-03  -1.0322921687684516e-02  -1.0884277037048236e-02  -1.1581109148135104e-02  -1.2410998433266901e-02  -1.3340242909822742e-02  -1.4306360511373038e-02  -1.5223719580321251e-02  -1.5992064810999670e-02  -1.6507539391451959e-02  -1.6675413181511837e-02  -1.6423167603241366e-02  -1.5712068235771350e-02  -1.4545141818754858e-02  -1.2969756269289584e-02  -1.1073799956841572e-02  -8.9756043281652154e-03  -6.8089649406663103e-03  -4.7055849970232405e-03  -2.7777684516058941e-03  -1.1041414348486958e-03  2.7936497675521798e-04  1.3819342837140299e-03  2.2534187696636597e-03  2.9738309727741006e-03  3.6384968426192888e-03  4.3412411595426387e-03  5.1582517742571861e-03  6.1351335359428310e-03  7.2791406296713115e-03  8.5577530857633508e-03  9.9037642781583442e-03  1.1226015965156580e-02  1.2424010503155241e-02  1.3403999686219829e-02  1.4093922053696351e-02  1.4454795540897904e-02  1.4486833762058194e-02  1.4229505393076618e-02  1.3755790017347225e-02  1.3161781263948546e-02  1.2553385681954861e-02  1.2032103131055592e-02  1.1681794423498459e-02  1.1558041639441612e-02  1.8179308320192017e-02  1.8235333715061513e-02  1.8411384994899822e-02  1.8683446653197114e-02  1.9012936718777126e-02  1.9349400002947131e-02  1.9633476002837862e-02  1.9799850616639698e-02  1.9780243168176777e-02  1.9506739844180877e-02  1.8915811860870321e-02  1.7953126134596792e-02  1.6578875420508083e-02  1.4773003527885614e-02  1.2539537918773243e-02  9.9093250076728746e-03  6.9407255054492927e-03  3.7181213008885775e-03  3.4828183021615172e-04  -3.0452867510617713e-03  -6.3298317778095713e-03  -9.3723267967849785e-03  -1.2049204725940241e-02  -1.4255687887109852e-02  -1.5913285225129428e-02  -1.6974183655734217e-02  -1.7421908792984737e-02  -1.7268578258061041e-02  -1.6549940990382157e-02  -1.5319821705013580e-02  -1.3645411192110034e-02  -1.1604183865431708e-02  -9.2824049590702843e-03  -6.7745478096334901e-03  -4.1826686571565285e-03  -1.6148783070829365e-03  8.1763133967761620e-04  3.0051653450917054e-03  4.8455265947402104e-03  6.2509846783757152e-03  7.1555332608132533e-03  7.5215634040702939e-03  7.3449425480409470e-03  6.6574712155784699e-03  5.5258635891744174e-03  4.0467947418705505e-03  2.3381381151716153e-03  5.2718054729758174e-04  -1.2627856703571942e-03  -2.9256695378157786e-03  -4.3836377309012520e-03  -5.5943094391915664e-03  -6.5529664045866944e-03  -7.2894884659539822e-03  -7.8606244111395340e-03  -8.3389675865090072e-03  -8.8004570800894761e-03  -9.3122883533119562e-03  -9.9228206703313761e-03  -1.0654535555314310e-02  -1.1500506265757002e-02  -1.2424353595477658e-02  -1.3363393206668782e-02  -1.4234616210664590e-02  -1.4943162412491145e-02  -1.5392863456412914e-02  -1.5498127151410959e-02  -1.5195935861759793e-02  -1.4456239166350611e-02  -1.3288806643833825e-02  -1.1744875867733118e-02  -9.9127132038758486e-03  -7.9073343469871927e-03  -5.8558113180299217e-03  -3.8805089022910274e-03  -2.0830214162895185e-03  -5.3144489755646779e-04  7.4700772547319936e-04  1.7669917981208011e-03  2.5796339076446795e-03  3.2617825062162165e-03  3.9017367671942450e-03  4.5837660353723010e-03  5.3738392118408505e-03  6.3087198403779451e-03  7.3900097562383830e-03  8.5839411264049051e-03  9.8268372377167956e-03  1.1035301991826460e-02  1.2119473906072369e-02  1.2997208593150129e-02  1.3606929448855684e-02  1.3917150452634025e-02  1.3931286105713595e-02  1.3687195285202272e-02  1.3251777260782799e-02  1.2711668518510437e-02  1.2161554930926220e-02  1.1691781073582746e-02  1.1376852066923919e-02  1.1266163380770119e-02  1.7473533412325742e-02  1.7514198398041980e-02  1.7642664667792327e-02  1.7837759707293555e-02  1.8065202301950647e-02  1.8279880785307404e-02  1.8428474150105015e-02  1.8452239577731979e-02  1.8290070576184082e-02  1.7882097407988986e-02  1.7174029272862410e-02  1.6122135336010091e-02  1.4698372180426278e-02  1.2894888406201946e-02  1.0727121169480356e-02  8.2349585256326716e-03  5.4818444847028955e-03  2.5520477685867160e-03  -4.5355208879288523e-04  -3.4228893927175431e-03  -6.2392187103228183e-03  -8.7885698756248864e-03  -1.0967754256777039e-02  -1.2692084661196699e-02  -1.3901610941465655e-02  -1.4564675464504750e-02  -1.4678083978580760e-02  -1.4264038437286720e-02  -1.3364852284025093e-02  -1.2036995654783160e-02  -1.0345988168940150e-02  -8.3631182441288379e-03  -6.1641769770152902e-03  -3.8296672390544045e-03  -1.4455087806264913e-03  8.9682713153635071e-04  3.1016191864593860e-03  5.0721267945934645e-03  6.7158027215152840e-03  7.9510989014210231e-03  8.7150784495458825e-03  8.9707354402941003e-03  8.7127579382572356e-03  7.9705135859676271e-03  6.8073303085366705e-03  5.3156677476548630e-03  3.6084387045846617e-03  1.8074106807211209e-03  3.0162198220063732e-05  -1.6226122239515683e-03  -3.0776165591299962e-03  -4.2957157473545206e-03  -5.2739120638163944e-03  -6.0422460577500654e-03  -6.6561610740482188e-03  -7.1856178477998252e-03  -7.7027451956354033e-03  -8.2699471028497614e-03  -8.9301342937593859e-03  -9.7002017498016915e-03  -1.0568212440130082e-02  -1.1494175045599039e-02  -1.2413964447558108e-02  -1.3245847941259251e-02  -1.3899129095306753e-02  -1.4284411736138551e-02  -1.4324770643626694e-02  -1.3966698449071011e-02  -1.3189260153663271e-02  -1.2009696017326819e-02  -1.0483982320361265e-02  -8.7016263187773522e-03  -6.7750731927611364e-03  -4.8252384738525804e-03  -2.9655299532936725e-03  -1.2870643672132018e-03  1.5244816840626204e-04  1.3343930192877863e-03  2.2787574801091896e-03  3.0377700210269623e-03  3.6849295549988594e-03  4.3013501948033399e-03  4.9616587319848155e-03  5.7216214468270368e-03  6.6092916577284114e-03  7.6208532015235968e-03  8.7215978161640905e-03  9.8517179379277453e-03  1.0935907721210921e-02  1.1895224477887382e-02  1.2659348614183800e-02  1.3177355878433260e-02  1.3425402213138348e-02  1.3410273560451397e-02  1.3168458196792006e-02  1.2761106307027233e-02  1.2265809366948830e-02  1.1766475764457600e-02  1.1342689055675556e-02  1.1059857296195082e-02  1.0961258127136872e-02  1.6430157074553687e-02  1.6456636247663834e-02  1.6539318498177004e-02  1.6659605618056017e-02  1.6787281191482546e-02  1.68