<?xml version="1.0"?>
<VTKFile type="UnstructuredGrid"  version="0.1"  >
<UnstructuredGrid>
<Piece  NumberOfPoints="10201" NumberOfCells="20000">
<Points>
<DataArray  type="Float64"  NumberOfComponents="3"  format="ascii">0 0 0  0.25 0 0  0.5 0 0  0.75 0 0  1 0 0  1.25 0 0  1.5 0 0  1.75 0 0  2 0 0  2.25 0 0  2.5 0 0  2.75 0 0  3 0 0  3.25 0 0  3.5 0 0  3.75 0 0  4 0 0  4.25 0 0  4.5 0 0  4.75 0 0  5 0 0  5.25 0 0  5.5 0 0  5.75 0 0  6 0 0  6.25 0 0  6.5 0 0  6.75 0 0  7 0 0  7.25 0 0  7.5 0 0  7.75 0 0  8 0 0  8.25 0 0  8.5 0 0  8.75 0 0  9 0 0  9.25 0 0  9.5 0 0  9.75 0 0  10 0 0  10.25 0 0  10.5 0 0  10.75 0 0  11 0 0  11.25 0 0  11.5 0 0  11.75 0 0  12 0 0  12.25 0 0  12.5 0 0  12.75 0 0  13 0 0  13.25 0 0  13.5 0 0  13.75 0 0  14 0 0  14.25 0 0  14.5 0 0  14.75 0 0  15 0 0  15.25 0 0  15.5 0 0  15.75 0 0  16 0 0  16.25 0 0  16.5 0 0  16.75 0 0  17 0 0  17.25 0 0  17.5 0 0  17.75 0 0  18 0 0  18.25 0 0  18.5 0 0  18.75 0 0  19 0 0  19.25 0 0  19.5 0 0  19.75 0 0  20 0 0  20.25 0 0  20.5 0 0  20.75 0 0  21 0 0  21.25 0 0  21.5 0 0  21.75 0 0  22 0 0  22.25 0 0  22.5 0 0  22.75 0 0  23 0 0  23.25 0 0  23.5 0 0  23.75 0 0  24 0 0  24.25 0 0  24.5 0 0  24.75 0 0  25 0 0  0 0.25 0  0.25 0.25 0  0.5 0.25 0  0.75 0.25 0  1 0.25 0  1.25 0.25 0  1.5 0.25 0  1.75 0.25 0  2 0.25 0  2.25 0.25 0  2.5 0.25 0  2.75 0.25 0  3 0.25 0  3.25 0.25 0  3.5 0.25 0  3.75 0.25 0  4 0.25 0  4.25 0.25 0  4.5 0.25 0  4.75 0.25 0  5 0.25 0  5.25 0.25 0  5.5 0.25 0  5.75 0.25 0  6 0.25 0  6.25 0.25 0  6.5 0.25 0  6.75 0.25 0  7 0.25 0  7.25 0.25 0  7.5 0.25 0  7.75 0.25 0  8 0.25 0  8.25 0.25 0  8.5 0.25 0  8.75 0.25 0  9 0.25 0  9.25 0.25 0  9.5 0.25 0  9.75 0.25 0  10 0.25 0  10.25 0.25 0  10.5 0.25 0  10.75 0.25 0  11 0.25 0  11.25 0.25 0  11.5 0.25 0  11.75 0.25 0  12 0.25 0  12.25 0.25 0  12.5 0.25 0  12.75 0.25 0  13 0.25 0  13.25 0.25 0  13.5 0.25 0  13.75 0.25 0  14 0.25 0  14.25 0.25 0  14.5 0.25 0  14.75 0.25 0  15 0.25 0  15.25 0.25 0  15.5 0.25 0  15.75 0.25 0  16 0.25 0  16.25 0.25 0  16.5 0.25 0  16.75 0.25 0  17 0.25 0  17.25 0.25 0  17.5 0.25 0  17.75 0.25 0  18 0.25 0  18.25 0.25 0  18.5 0.25 0  18.75 0.25 0  19 0.25 0  19.25 0.25 0  19.5 0.25 0  19.75 0.25 0  20 0.25 0  20.25 0.25 0  20.5 0.25 0  20.75 0.25 0  21 0.25 0  21.25 0.25 0  21.5 0.25 0  21.75 0.25 0  22 0.25 0  22.25 0.25 0  22.5 0.25 0  22.75 0.25 0  23 0.25 0  23.25 0.25 0  23.5 0.25 0  23.75 0.25 0  24 0.25 0  24.25 0.25 0  24.5 0.25 0  24.75 0.25 0  25 0.25 0  0 0.5 0  0.25 0.5 0  0.5 0.5 0  0.75 0.5 0  1 0.5 0  1.25 0.5 0  1.5 0.5 0  1.75 0.5 0  2 0.5 0  2.25 0.5 0  2.5 0.5 0  2.75 0.5 0  3 0.5 0  3.25 0.5 0  3.5 0.5 0  3.75 0.5 0  4 0.5 0  4.25 0.5 0  4.5 0.5 0  4.75 0.5 0  5 0.5 0  5.25 0.5 0  5.5 0.5 0  5.75 0.5 0  6 0.5 0  6.25 0.5 0  6.5 0.5 0  6.75 0.5 0  7 0.5 0  7.25 0.5 0  7.5 0.5 0  7.75 0.5 0  8 0.5 0  8.25 0.5 0  8.5 0.5 0  8.75 0.5 0  9 0.5 0  9.25 0.5 0  9.5 0.5 0  9.75 0.5 0  10 0.5 0  10.25 0.5 0  10.5 0.5 0  10.75 0.5 0  11 0.5 0  11.25 0.5 0  11.5 0.5 0  11.75 0.5 0  12 0.5 0  12.25 0.5 0  12.5 0.5 0  12.75 0.5 0  13 0.5 0  13.25 0.5 0  13.5 0.5 0  13.75 0.5 0  14 0.5 0  14.25 0.5 0  14.5 0.5 0  14.75 0.5 0  15 0.5 0  15.25 0.5 0  15.5 0.5 0  15.75 0.5 0  16 0.5 0  16.25 0.5 0  16.5 0.5 0  16.75 0.5 0  17 0.5 0  17.25 0.5 0  17.5 0.5 0  17.75 0.5 0  18 0.5 0  18.25 0.5 0  18.5 0.5 0  18.75 0.5 0  19 0.5 0  19.25 0.5 0  19.5 0.5 0  19.75 0.5 0  20 0.5 0  20.25 0.5 0  20.5 0.5 0  20.75 0.5 0  21 0.5 0  21.25 0.5 0  21.5 0.5 0  21.75 0.5 0  22 0.5 0  22.25 0.5 0  22.5 0.5 0  22.75 0.5 0  23 0.5 0  23.25 0.5 0  23.5 0.5 0  23.75 0.5 0  24 0.5 0  24.25 0.5 0  24.5 0.5 0  24.75 0.5 0  25 0.5 0  0 0.75 0  0.25 0.75 0  0.5 0.75 0  0.75 0.75 0  1 0.75 0  1.25 0.75 0  1.5 0.75 0  1.75 0.75 0  2 0.75 0  2.25 0.75 0  2.5 0.75 0  2.75 0.75 0  3 0.75 0  3.25 0.75 0  3.5 0.75 0  3.75 0.75 0  4 0.75 0  4.25 0.75 0  4.5 0.75 0  4.75 0.75 0  5 0.75 0  5.25 0.75 0  5.5 0.75 0  5.75 0.75 0  6 0.75 0  6.25 0.75 0  6.5 0.75 0  6.75 0.75 0  7 0.75 0  7.25 0.75 0  7.5 0.75 0  7.75 0.75 0  8 0.75 0  8.25 0.75 0  8.5 0.75 0  8.75 0.75 0  9 0.75 0  9.25 0.75 0  9.5 0.75 0  9.75 0.75 0  10 0.75 0  10.25 0.75 0  10.5 0.75 0  10.75 0.75 0  11 0.75 0  11.25 0.75 0  11.5 0.75 0  11.75 0.75 0  12 0.75 0  12.25 0.75 0  12.5 0.75 0  12.75 0.75 0  13 0.75 0  13.25 0.75 0  13.5 0.75 0  13.75 0.75 0  14 0.75 0  14.25 0.75 0  14.5 0.75 0  14.75 0.75 0  15 0.75 0  15.25 0.75 0  15.5 0.75 0  15.75 0.75 0  16 0.75 0  16.25 0.75 0  16.5 0.75 0  16.75 0.75 0  17 0.75 0  17.25 0.75 0  17.5 0.75 0  17.75 0.75 0  18 0.75 0  18.25 0.75 0  18.5 0.75 0  18.75 0.75 0  19 0.75 0  19.25 0.75 0  19.5 0.75 0  19.75 0.75 0  20 0.75 0  20.25 0.75 0  20.5 0.75 0  20.75 0.75 0  21 0.75 0  21.25 0.75 0  21.5 0.75 0  21.75 0.75 0  22 0.75 0  22.25 0.75 0  22.5 0.75 0  22.75 0.75 0  23 0.75 0  23.25 0.75 0  23.5 0.75 0  23.75 0.75 0  24 0.75 0  24.25 0.75 0  24.5 0.75 0  24.75 0.75 0  25 0.75 0  0 1 0  0.25 1 0  0.5 1 0  0.75 1 0  1 1 0  1.25 1 0  1.5 1 0  1.75 1 0  2 1 0  2.25 1 0  2.5 1 0  2.75 1 0  3 1 0  3.25 1 0  3.5 1 0  3.75 1 0  4 1 0  4.25 1 0  4.5 1 0  4.75 1 0  5 1 0  5.25 1 0  5.5 1 0  5.75 1 0  6 1 0  6.25 1 0  6.5 1 0  6.75 1 0  7 1 0  7.25 1 0  7.5 1 0  7.75 1 0  8 1 0  8.25 1 0  8.5 1 0  8.75 1 0  9 1 0  9.25 1 0  9.5 1 0  9.75 1 0  10 1 0  10.25 1 0  10.5 1 0  10.75 1 0  11 1 0  11.25 1 0  11.5 1 0  11.75 1 0  12 1 0  12.25 1 0  12.5 1 0  12.75 1 0  13 1 0  13.25 1 0  13.5 1 0  13.75 1 0  14 1 0  14.25 1 0  14.5 1 0  14.75 1 0  15 1 0  15.25 1 0  15.5 1 0  15.75 1 0  16 1 0  16.25 1 0  16.5 1 0  16.75 1 0  17 1 0  17.25 1 0  17.5 1 0  17.75 1 0  18 1 0  18.25 1 0  18.5 1 0  18.75 1 0  19 1 0  19.25 1 0  19.5 1 0  19.75 1 0  20 1 0  20.25 1 0  20.5 1 0  20.75 1 0  21 1 0  21.25 1 0  21.5 1 0  21.75 1 0  22 1 0  22.25 1 0  22.5 1 0  22.75 1 0  23 1 0  23.25 1 0  23.5 1 0  23.75 1 0  24 1 0  24.25 1 0  24.5 1 0  24.75 1 0  25 1 0  0 1.25 0  0.25 1.25 0  0.5 1.25 0  0.75 1.25 0  1 1.25 0  1.25 1.25 0  1.5 1.25 0  1.75 1.25 0  2 1.25 0  2.25 1.25 0  2.5 1.25 0  2.75 1.25 0  3 1.25 0  3.25 1.25 0  3.5 1.25 0  3.75 1.25 0  4 1.25 0  4.25 1.25 0  4.5 1.25 0  4.75 1.25 0  5 1.25 0  5.25 1.25 0  5.5 1.25 0  5.75 1.25 0  6 1.25 0  6.25 1.25 0  6.5 1.25 0  6.75 1.25 0  7 1.25 0  7.25 1.25 0  7.5 1.25 0  7.75 1.25 0  8 1.25 0  8.25 1.25 0  8.5 1.25 0  8.75 1.25 0  9 1.25 0  9.25 1.25 0  9.5 1.25 0  9.75 1.25 0  10 1.25 0  10.25 1.25 0  10.5 1.25 0  10.75 1.25 0  11 1.25 0  11.25 1.25 0  11.5 1.25 0  11.75 1.25 0  12 1.25 0  12.25 1.25 0  12.5 1.25 0  12.75 1.25 0  13 1.25 0  13.25 1.25 0  13.5 1.25 0  13.75 1.25 0  14 1.25 0  14.25 1.25 0  14.5 1.25 0  14.75 1.25 0  15 1.25 0  15.25 1.25 0  15.5 1.25 0  15.75 1.25 0  16 1.25 0  16.25 1.25 0  16.5 1.25 0  16.75 1.25 0  17 1.25 0  17.25 1.25 0  17.5 1.25 0  17.75 1.25 0  18 1.25 0  18.25 1.25 0  18.5 1.25 0  18.75 1.25 0  19 1.25 0  19.25 1.25 0  19.5 1.25 0  19.75 1.25 0  20 1.25 0  20.25 1.25 0  20.5 1.25 0  20.75 1.25 0  21 1.25 0  21.25 1.25 0  21.5 1.25 0  21.75 1.25 0  22 1.25 0  22.25 1.25 0  22.5 1.25 0  22.75 1.25 0  23 1.25 0  23.25 1.25 0  23.5 1.25 0  23.75 1.25 0  24 1.25 0  24.25 1.25 0  24.5 1.25 0  24.75 1.25 0  25 1.25 0  0 1.5 0  0.25 1.5 0  0.5 1.5 0  0.75 1.5 0  1 1.5 0  1.25 1.5 0  1.5 1.5 0  1.75 1.5 0  2 1.5 0  2.25 1.5 0  2.5 1.5 0  2.75 1.5 0  3 1.5 0  3.25 1.5 0  3.5 1.5 0  3.75 1.5 0  4 1.5 0  4.25 1.5 0  4.5 1.5 0  4.75 1.5 0  5 1.5 0  5.25 1.5 0  5.5 1.5 0  5.75 1.5 0  6 1.5 0  6.25 1.5 0  6.5 1.5 0  6.75 1.5 0  7 1.5 0  7.25 1.5 0  7.5 1.5 0  7.75 1.5 0  8 1.5 0  8.25 1.5 0  8.5 1.5 0  8.75 1.5 0  9 1.5 0  9.25 1.5 0  9.5 1.5 0  9.75 1.5 0  10 1.5 0  10.25 1.5 0  10.5 1.5 0  10.75 1.5 0  11 1.5 0  11.25 1.5 0  11.5 1.5 0  11.75 1.5 0  12 1.5 0  12.25 1.5 0  12.5 1.5 0  12.75 1.5 0  13 1.5 0  13.25 1.5 0  13.5 1.5 0  13.75 1.5 0  14 1.5 0  14.25 1.5 0  14.5 1.5 0  14.75 1.5 0  15 1.5 0  15.25 1.5 0  15.5 1.5 0  15.75 1.5 0  16 1.5 0  16.25 1.5 0  16.5 1.5 0  16.75 1.5 0  17 1.5 0  17.25 1.5 0  17.5 1.5 0  17.75 1.5 0  18 1.5 0  18.25 1.5 0  18.5 1.5 0  18.75 1.5 0  19 1.5 0  19.25 1.5 0  19.5 1.5 0  19.75 1.5 0  20 1.5 0  20.25 1.5 0  20.5 1.5 0  20.75 1.5 0  21 1.5 0  21.25 1.5 0  21.5 1.5 0  21.75 1.5 0  22 1.5 0  22.25 1.5 0  22.5 1.5 0  22.75 1.5 0  23 1.5 0  23.25 1.5 0  23.5 1.5 0  23.75 1.5 0  24 1.5 0  24.25 1.5 0  24.5 1.5 0  24.75 1.5 0  25 1.5 0  0 1.75 0  0.25 1.75 0  0.5 1.75 0  0.75 1.75 0  1 1.75 0  1.25 1.75 0  1.5 1.75 0  1.75 1.75 0  2 1.75 0  2.25 1.75 0  2.5 1.75 0  2.75 1.75 0  3 1.75 0  3.25 1.75 0  3.5 1.75 0  3.75 1.75 0  4 1.75 0  4.25 1.75 0  4.5 1.75 0  4.75 1.75 0  5 1.75 0  5.25 1.75 0  5.5 1.75 0  5.75 1.75 0  6 1.75 0  6.25 1.75 0  6.5 1.75 0  6.75 1.75 0  7 1.75 0  7.25 1.75 0  7.5 1.75 0  7.75 1.75 0  8 1.75 0  8.25 1.75 0  8.5 1.75 0  8.75 1.75 0  9 1.75 0  9.25 1.75 0  9.5 1.75 0  9.75 1.75 0  10 1.75 0  10.25 1.75 0  10.5 1.75 0  10.75 1.75 0  11 1.75 0  11.25 1.75 0  11.5 1.75 0  11.75 1.75 0  12 1.75 0  12.25 1.75 0  12.5 1.75 0  12.75 1.75 0  13 1.75 0  13.25 1.75 0  13.5 1.75 0  13.75 1.75 0  14 1.75 0  14.25 1.75 0  14.5 1.75 0  14.75 1.75 0  15 1.75 0  15.25 1.75 0  15.5 1.75 0  15.75 1.75 0  16 1.75 0  16.25 1.75 0  16.5 1.75 0  16.75 1.75 0  17 1.75 0  17.25 1.75 0  17.5 1.75 0  17.75 1.75 0  18 1.75 0  18.25 1.75 0  18.5 1.75 0  18.75 1.75 0  19 1.75 0  19.25 1.75 0  19.5 1.75 0  19.75 1.75 0  20 1.75 0  20.25 1.75 0  20.5 1.75 0  20.75 1.75 0  21 1.75 0  21.25 1.75 0  21.5 1.75 0  21.75 1.75 0  22 1.75 0  22.25 1.75 0  22.5 1.75 0  22.75 1.75 0  23 1.75 0  23.25 1.75 0  23.5 1.75 0  23.75 1.75 0  24 1.75 0  24.25 1.75 0  24.5 1.75 0  24.75 1.75 0  25 1.75 0  0 2 0  0.25 2 0  0.5 2 0  0.75 2 0  1 2 0  1.25 2 0  1.5 2 0  1.75 2 0  2 2 0  2.25 2 0  2.5 2 0  2.75 2 0  3 2 0  3.25 2 0  3.5 2 0  3.75 2 0  4 2 0  4.25 2 0  4.5 2 0  4.75 2 0  5 2 0  5.25 2 0  5.5 2 0  5.75 2 0  6 2 0  6.25 2 0  6.5 2 0  6.75 2 0  7 2 0  7.25 2 0  7.5 2 0  7.75 2 0  8 2 0  8.25 2 0  8.5 2 0  8.75 2 0  9 2 0  9.25 2 0  9.5 2 0  9.75 2 0  10 2 0  10.25 2 0  10.5 2 0  10.75 2 0  11 2 0  11.25 2 0 
[...]
<PointData  Scalars="f_23"> 
<DataArray  type="Float64"  Name="f_23"  format="ascii">3.2615658071766203e-02  3.2658575437929847e-02  3.2800626375946884e-02  3.3007259776351466e-02  3.3229062019656551e-02  3.3402191927192466e-02  3.3451266935175354e-02  3.3293322792066586e-02  3.2842438243661155e-02  3.2014842035510541e-02  3.0734361232854363e-02  2.8938035838348249e-02  2.6581644332217044e-02  2.3644783482496521e-02  2.0135056133252373e-02  1.6090877195154431e-02  1.1582438218105610e-02  6.7104873275473653e-03  1.6027774220110954e-03  -3.5917142010682209e-03  -8.7104275138760665e-03  -1.3586124825255544e-02  -1.8056308457021539e-02  -2.1972355427044628e-02  -2.5207644501343853e-02  -2.7664119132981620e-02  -2.9276954136641206e-02  -3.0017222281926093e-02  -2.9892641459494766e-02  -2.8946594296019035e-02  -2.7255646630938355e-02  -2.4925769642465446e-02  -2.2087426917877084e-02  -1.8889656744889231e-02  -1.5493284178697503e-02  -1.2063442972135272e-02  -8.7616649833916881e-03  -5.7378859771950877e-03  -3.1228016835392687e-03  -1.0210692082553772e-03  4.9412698344641860e-04  1.3846487668657214e-03  1.6487017717364625e-03  1.3195825448702630e-03  4.6180541850453742e-04  -8.3520637824131144e-04  -2.4654011671237145e-03  -4.3156212291671535e-03  -6.2754336996647527e-03  -8.2462389491367704e-03  -1.0148664599817137e-02  -1.1927435286618703e-02  -1.3553211258713905e-02  -1.5021267150526442e-02  -1.6347276365601397e-02  -1.7560817036352153e-02  -1.8697475039894298e-02  -1.9790560179563751e-02  -2.0863466380856576e-02  -2.1923605675294493e-02  -2.2958649518335719e-02  -2.3935544546420995e-02  -2.4802458491617701e-02  -2.5493480478288609e-02  -2.5935574463407510e-02  -2.6056994922013899e-02  -2.5796154045623586e-02  -2.5109815159273779e-02  -2.3979508072442108e-02  -2.2415235009185273e-02  -2.0455854804529192e-02  -1.8165965786793331e-02  -1.5629596734869567e-02  -1.2941486159946168e-02  -1.0197104900076349e-02  -7.4827891695800897e-03  -4.8673593292742909e-03  -2.3963958431863323e-03  -8.9955706230665191e-05  2.0560016088212430e-03  4.0647705468923982e-03  5.9714499561647413e-03  7.8140959866020553e-03  9.6248950488280801e-03  1.1422761412325514e-02  1.3208528575462092e-02  1.4963481833811311e-02  1.6651438672784107e-02  1.8224011321793118e-02  1.9628175484100445e-02  2.0814904091066379e-02  2.1747463210664141e-02  2.2408032126699066e-02  2.2801585527717969e-02  2.2956412269653777e-02  2.2921167431277398e-02  2.2758877562423493e-02  2.2538763642497239e-02  2.2327051120048354e-02  2.2178068638021489e-02  2.2126906795435192e-02  3.2495085409903118e-02  3.2541877401399195e-02  3.2679886228858319e-02  3.2879179311142724e-02  3.3091716432164922e-02  3.3254424740978811e-02  3.3292627928233648e-02  3.3124120355715880e-02  3.2663809964404066e-02  3.1828813952975779e-02  3.0543878395071070e-02  2.8746948673164591e-02  2.6394637295927781e-02  2.3467237019495341e-02  1.9972840347296503e-02  1.5950084763221281e-02  1.1469073269317795e-02  6.6301343638577601e-03  1.5602782806399067e-03  -3.5925476934574869e-03  -8.6670419871258328e-03  -1.3497379044023129e-02  -1.7922544740675461e-02  -2.1795388807355192e-02  -2.4990674882341510e-02  -2.7411574485125517e-02  -2.8994273809628227e-02  -2.9710590260674893e-02  -2.9568681111949768e-02  -2.8612039387039091e-02  -2.6917007544661829e-02  -2.4589017441246055e-02  -2.1757719389028009e-02  -1.8571128731165353e-02  -1.5188919009213406e-02  -1.1775033526293987e-02  -8.4898633987372223e-03  -5.4823320174967969e-03  -2.8823127384663182e-03  -7.9387055520617922e-04  7.1015460777893585e-04  1.5917265004533727e-03  1.8489346386697720e-03  1.5147822890950679e-03  6.5336580784909962e-04  -6.4637533088805895e-04  -2.2788793339998149e-03  -4.1314299570126894e-03  -6.0939432786181425e-03  -8.0680463719180941e-03  -9.9744580095692762e-03  -1.1757861212337102e-02  -1.3388758417764841e-02  -1.4862177007009397e-02  -1.6193486722522740e-02  -1.7411941498793056e-02  -1.8552818565579464e-02  -1.9649168975592320e-02  -2.0724208615382548e-02  -2.1785277334933326e-02  -2.2820097042061845e-02  -2.3795792878069284e-02  -2.4660830647411709e-02  -2.5349693578048938e-02  -2.5789798250717581e-02  -2.5909862463177835e-02  -2.5648720261325482e-02  -2.4963466192395579e-02  -2.3835831916414960e-02  -2.2275869933916181e-02  -2.0322335800797446e-02  -1.8039589862878576e-02  -1.5511325351493866e-02  -1.2831897790218599e-02  -1.0096403427411509e-02  -7.3908655897428821e-03  -4.7838961104277270e-03  -2.3209964500064202e-03  -2.2277281852137628e-05  2.1161356948124067e-03  4.1172991016906442e-03  6.0160579254650657e-03  7.8502593591861843e-03  9.6519812664125591e-03  1.1440169333010973e-02  1.3215843869778997e-02  1.4960619591706501e-02  1.6638745972698550e-02  1.8202308582801089e-02  1.9598725586540126e-02  2.0779310673029398e-02  2.1707511939104390e-02  2.2365498844893437e-02  2.2758041224107968e-02  2.2913055832056765e-02  2.2878713094808528e-02  2.2717515538814570e-02  2.2498200530407311e-02  2.2286620573171670e-02  2.2136872588651300e-02  2.2083851866492511e-02  3.2151983084588075e-02  3.2195159042933699e-02  3.2321330252041987e-02  3.2501683082801290e-02  3.2689631734114766e-02  3.2823720257394794e-02  3.2831118931209817e-02  3.2631728226802915e-02  3.2142811715729587e-02  3.1284049982440817e-02  2.9982885223422268e-02  2.8179979088112060e-02  2.5834529613004999e-02  2.2929101948941644e-02  1.9473549439428913e-02  1.5507567116687630e-02  1.1101453361053264e-02  6.3547683863378716e-03  1.3927641520807407e-03  -3.6393041311160090e-03  -8.5836263939563021e-03  -1.3278469950180394e-02  -1.7567274183951487e-02  -2.1307442460099871e-02  -2.4378132613647789e-02  -2.6686508575436765e-02  -2.8172133746051566e-02  -2.8809411757895250e-02  -2.8608164770846857e-02  -2.7612552432451726e-02  -2.5898569927222490e-02  -2.3570339172594417e-02  -2.0755356469767176e-02  -1.7598818115668262e-02  -1.4257138076882090e-02  -1.0890807997090871e-02  -7.6568228797835513e-03  -4.7009885941593802e-03  -2.1505190552376196e-03  -1.0740211131231440e-04  1.3569521077033625e-03  2.2052810434496717e-03  2.4358318649741152e-03  2.0812284990538920e-03  1.2047585553143498e-03  -1.0575067009946259e-04  -1.7460183391644333e-03  -3.6046440283289409e-03  -5.5727704690396633e-03  -7.5530564817761648e-03  -9.4669771690306485e-03  -1.1259645830448813e-02  -1.2901650360754370e-02  -1.4387771368955440e-02  -1.5732841199948711e-02  -1.6965352859565439e-02  -1.8119687325233873e-02  -1.9227967916145103e-02  -2.0312563573183673e-02  -2.1380159201133377e-02  -2.2418112244383375e-02  -2.3393546796569006e-02  -2.4255326438498304e-02  -2.4938720210233748e-02  -2.5372258473922143e-02  -2.5485995358599835e-02  -2.5220184069022142e-02  -2.4533264037713217e-02  -2.3408083508230829e-02  -2.1855453327778624e-02  -1.9914441851478247e-02  -1.7649245308250783e-02  -1.5142946486004271e-02  -1.2488934169730336e-02  -9.7811197952586467e-03  -7.1042911962664332e-03  -4.5259460272812592e-03  -2.0907427252077229e-03  1.8167695786181620e-04  2.2952443837026106e-03  4.2726968337178459e-03  6.1482876632991956e-03  7.9591556477850624e-03  9.7367328345853085e-03  1.1499551910469228e-02  1.3248581586339223e-02  1.4965807788358562e-02  1.6616254806656197e-02  1.8153088320052739e-02  1.9524950879736405e-02  2.0684329419008919e-02  2.1595599197353470e-02  2.2241451282685887e-02  2.2626676274593763e-02  2.2778697219710282e-02  2.2744747896689219e-02  2.2586097581403178e-02  2.2370153785990700e-02  2.2161571619741898e-02  2.2013631022592465e-02  2.1961120217124458e-02  3.1564764335707984e-02  3.1601270589198135e-02  3.1708851167261555e-02  3.1859794573852199e-02  3.2009365406800418e-02  3.2098505770098547e-02  3.2057281979321756e-02  3.1808959430878074e-02  3.1274589986811763e-02  3.0377988317405694e-02  2.9050953459527039e-02  2.7238547182205475e-02  2.4904171608415109e-02  2.2034109610259645e-02  1.8641127443657965e-02  1.4766716745890043e-02  1.0481593238401513e-02  5.8841809425002030e-03  1.0969869096893866e-03  -3.7390090359795854e-03  -8.4715953954332245e-03  -1.2945646229751714e-02  -1.7011826131340922e-02  -2.0534955229715993e-02  -2.3401370967636739e-02  -2.5524778171737952e-02  -2.6850289546185995e-02  -2.7356577966340129e-02  -2.7056243466840883e-02  -2.5994609811657465e-02  -2.4247199674867864e-02  -2.1916109429137194e-02  -1.9125446297047564e-02  -1.6015937969457616e-02  -1.2738805390687296e-02  -9.4490155700430126e-03  -6.2980992069465221e-03  -3.4268120007080066e-03  -9.5801760356150928e-04  1.0097471572412262e-03  2.4075167949036518e-03  3.1994468806378633e-03  3.3842304794590963e-03  2.9940779472529037e-03  2.0911590575838227e-03  7.6166213512437748e-04  -8.9209385636054167e-04  -2.7607918343533822e-03  -4.7375864437803668e-03  -6.7269043453326719e-03  -8.6516029784599081e-03  -1.0457691325466974e-02  -1.2116111573756123e-02  -1.3621451704724903e-02  -1.4987847861633128e-02  -1.6242682547970361e-02  -1.7418941806079984e-02  -1.8547231995137820e-02  -1.9648466467288468e-02  -2.0728124616517248e-02  -2.1772782919519153e-02  -2.2749347490848743e-02  -2.3607108383895133e-02  -2.4282413755086003e-02  -2.4705452748760310e-02  -2.4808366849882305e-02  -2.4533710704059335e-02  -2.3842186391496590e-02  -2.2718606860281387e-02  -2.1175219128284701e-02  -1.9251829789650923e-02  -1.7012592840915153e-02  -1.4539787313582173e-02  -1.1925357879263080e-02  -9.2613405454612472e-03  -6.6304848066207943e-03  -4.0983753799677556e-03  -1.7081464382978472e-03  5.2150098205560843e-04  2.5947630012886527e-03  4.5339936879069623e-03  6.3725608873265623e-03  8.1464547110310613e-03  9.8859856047887121e-03  1.1608879656018022e-02  1.3315845186436526e-02  1.4989283359042080e-02  1.6595310240860292e-02  1.8088729358981110e-02  1.9420127099465469e-02  2.0543932912753419e-02  2.1426143763757104e-02  2.2050477295954780e-02  2.2421975618163812e-02  2.2567485081282767e-02  2.2532918678074894e-02  2.2377689814479365e-02  2.2167117273007759e-02  2.1963886138987605e-02  2.1819777860637546e-02  2.1768851174498244e-02  3.0706106234477181e-02  3.0734240915014196e-02  3.0817944880295468e-02  3.0930935365984104e-02  3.1030807083888605e-02  3.1061619343814625e-02  3.0957272700662890e-02  3.0645523764490149e-02  3.0052496235596006e-02  2.9107543392181228e-02  2.7748298544832701e-02  2.5925709706032602e-02  2.3608796075419377e-02  2.0788801107701017e-02  1.7482371349802368e-02  1.3733383982554402e-02  9.6130951673603360e-03  5.2183913246163002e-03  6.6808925614010562e-04  -3.9025704637283844e-03  -8.3488875639735147e-03  -1.2524596751430490e-02  -1.6290048614215749e-02  -1.9519999909900863e-02  -2.2110398614285681e-02  -2.3983695534858684e-02  -2.5092414553797387e-02  -2.5420924182263625e-02  -2.4985529503146656e-02  -2.3833113314522605e-02  -2.2038587507328743e-02  -1.9701383087666328e-02  -1.6941139850464224e-02  -1.3892690614871866e-02  -1.0700400368292373e-02  -7.5119339009229354e-03  -4.4715865773848019e-03  -1.7134084230617558e-03  6.4553961775487361e-04  2.5113604863840583e-03  3.8184257575409183e-03  4.5328978934871906e-03  4.6542138004779365e-03  4.2142045692122937e-03  3.2737292826627612e-03  1.9169596456022429e-03  2.4373675219249119e-04  -1.6393103325082052e-03  -3.6279894893573852e-03  -5.6291203909081267e-03  -7.5675009538208899e-03  -9.3904815331833213e-03  -1.1069655747936873e-02  -1.2599544274868989e-02  -1.3993532802376047e-02  -1.5277668760678337e-02  -1.6483174855454388e-02  -1.7638670750544674e-02  -1.8763098837362342e-02  -1.9860236336223327e-02  -2.0915467521504093e-02  -2.1895216178417731e-02  -2.2749129364946059e-02  -2.3414786738690137e-02  -2.3824410824045475e-02  -2.3912798663781362e-02  -2.3625512253299692e-02  -2.2926282653857179e-02  -2.1802625190701572e-02  -2.0268843233904332e-02  -1.8365908555411616e-02  -1.6158115567550573e-02  -1.3726860050987518e-02  -1.1162320034320494e-02  -8.5541446730503234e-03  -5.9824262753377907e-03  -3.5102065716186284e-03  -1.1785495851705644e-03  9.9516764583863489e-04  3.0155788583826537e-03  4.9046088254986854e-03  6.6945074768940700e-03  8.4197656124860090e-03  1.0109194341328311e-02  1.1779405592401744e-02  1.3430694881202283e-02  1.5045937665590030e-02  1.6592628927862726e-02  1.8027698454785104e-02  1.9304300372450480e-02  2.0379472985926590e-02  2.1221440061509538e-02  2.1815393858735040e-02  2.2166847870417762e-02  2.2302029251529097e-02  2.2265233489804186e-02  2.2113515487871160e-02  2.1909475232794032e-02  2.1713161128903237e-02  2.1574229431857574e-02  2.1525454280522924e-02  2.9544903559101294e-02  2.9563724953491185e-02  2.9619904985235521e-02  2.9688854256899790e-02  2.9730910348189785e-02  2.9693846745586363e-02  2.9516175935722262e-02  2.9131085857321548e-02  2.8470848642767266e-02  2.7471534455789717e-02  2.6077844323947427e-02  2.4247840977141222e-02  2.1957310727518452e-02  1.9203445575407568e-02  1.6007510735500757e-02  1.2416175294433654e-02  8.5012432976683695e-03  4.3576308253993118e-03  9.9583658027163383e-05  -4.1446963800177644e-03  -8.2396732470555942e-03  -1.2049853716582624e-02  -1.5447329033046865e-02  -1.8318866787742354e-02  -2.0571998398266424e-02  -2.2139683745191107e-02  -2.2983321620667459e-02  -2.3094073779269204e-02  -2.2492639462574179e-02  -2.1227723477596161e-02  -1.9373470650459471e-02  -1.7026101862740825e-02  -1.4299909484825901e-02  -1.1322688907047736e-02  -8.2306309763323891e-03  -5.1626982731867131e-03  -2.2545609672306771e-03  3.6773497671399596e-04  2.5940744510344112e-03  4.3361456631071400e-03  5.5323843283453999e-03  6.1514661884029247e-03  6.1938688747767050e-03  5.6911508489386753e-03  4.7027999713690222e-03  3.3107682714972795e-03  1.6120993357441086e-03  -2.8967376701153155e-04  -2.2934767415393091e-03  -4.3090078913040853e-03  -6.2634738912948238e-03  -8.1059787368994701e-03  -9.8090882049474779e-03  -1.1367456218539709e-02  -1.2793780039649632e-02  -1.4112690063200831e-02  -1.5353428649386554e-02  -1.6542300376205472e-02  -1.7695874204052164e-02  -1.8815796893724240e-02  -1.9885861255728610e-02  -2.0871693940539986e-02  -2.1723117600716026e-02  -2.2378930554995308e-02  -2.2773559608062197e-02  -2.2844803242495316e-02  -2.2541718409887959e-02  -2.1831640025622386e-02  -2.0705379256035144e-02  -1.9179834744465652e-02  -1.7297561272354524e-02  -1.5123240953801799e-02  -1.2737438812932227e-02  -1.0228429115970763e-02  -7.6831814247630987e-03  -5.1787397563930679e-03  -2.7751842028337931e-03  -5.1113450590963851e-04  1.5976253619370668e-03  3.5562926467510901e-03  5.3863368298753406e-03  7.1187343140370358e-03  8.7862403890855041e-03  1.0415916443767180e-02  1.2023066636932431e-02  1.3607498522143812e-02  1.5152645401102185e-02  1.6627634109484663e-02  1.7991921617127902e-02  1.9201728739713340e-02  2.0217229941248985e-02  2.1009354449573373e-02  2.1565128355192434e-02  2.1890723835662693e-02  2.2011738675043035e-02  2.1970648129121726e-02  2.1821786761183883e-02  2.1624569583841791e-02  2.1435902696710352e-02  2.1302835263021312e-02  2.1256457905315978e-02  2.8050662448950717e-02  2.8059884445935480e-02  2.8086691674486283e-02  2.8108348539746201e-02  2.8088217867588992e-02  2.7978209779812944e-02  2.7722014298097213e-02  2.7258950175877917e-02  2.6528251546362271e-02  2.5473602282828144e-02  2.4047708608396522e-02  2.2216672101914196e-02  1.9963893688120515e-02  1.7293216264273069e-02  1.4231012997569447e-02  1.0826960892510363e-02  7.1533096433570760e-03  3.3025615271991510e-03  -6.1638962660703791e-04  -4.4834669715029200e-03  -8.1736316324031860e-03  -1.1563662600370034e-02  -1.4538966924943894e-02  -1.6999877691413992e-02  -1.8866954265838971e-02  -2.0084923427849601e-02  -2.0625071322705520e-02  -2.0486081074746938e-02  -1.9693470485725839e-02  -1.8297885668204318e-02  -1.6372533356676558e-02  -1.4009992145847857e-02  -1.1318555556790896e-02  -8.4181632252806598e-03  -5.4359062168127074e-03  -2.5010741610137217e-03  2.6024455189179813e-04  2.7308997811397182e-03  4.8085115479926275e-03  6.4110176009372832e-03  7.4814488516783467e-03  7.9913949991665886e-03  7.9426538288858636e-03  7.3666800448252542e-03  6.3216575642093854e-03  4.8872906440004639e-03  3.1577066342925860e-03  1.2331393540104688e-03  -7.8873185418456399e-04  -2.8208174284719912e-03  -4.7930977489004951e-03  -6.6567958571466940e-03  -8.3857815235036260e-03  -9.9751070345780336e-03  -1.1436951435780615e-02  -1.2794583771421144e-02  -1.4075198939276267e-02  -1.5302601305523128e-02  -1.6490701658599713e-02  -1.7638663084652138e-02  -1.8728306673395003e-02  -1.9724102206390093e-02  -2.0575756731642095e-02  -2.1223106406384244e-02  -2.1602740986168434e-02  -2.1655569703952028e-02  -2.1334394856120115e-02  -2.0610516997920082e-02  -1.9478470623723654e-02  -1.7958188190269685e-02  -1.6094202294685948e-02  -1.3951887848559337e-02  -1.1611164748237314e-02  -9.1584605972043383e-03  -6.6780062680153029e-03  -4.2436527341929986e-03  -1.9123303138937414e-03  2.7997155168533897e-04  2.3192060611982638e-03  4.2112096987810734e-03  5.9769957553575098e-03  7.6462007256986588e-03  9.2497403533860281e-03  1.0812823068881674e-02  1.2349383733537046e-02  1.3858756861389619e-02  1.5325046169686492e-02  1.6719223582325873e-02  1.8003570931344373e-02  1.9137725074570379e-02  2.0085354117815868e-02  2.0820411700802274e-02  2.1331996367606652e-02  2.1627067158504619e-02  2.1730596237551601e-02  2.1683121565959730e-02  2.1536039144560055e-02  2.1345291346241402e-02  2.1164323576699364e-02  2.1037270829178042e-02  2.0993291450967535e-02  2.6198600441208933e-02  2.6198566263607850e-02  2.6196055786939537e-02  2.6170235467500556e-02  2.6087612088294514e-02  2.5904440393753836e-02  2.5569896813341996e-02  2.5029841681922953e-02  2.4230972849636420e-02  2.3125157062260746e-02  2.1673706907898035e-02  1.9851350851431776e-02  1.7649628270176410e-02  1.5079440481579671e-02  1.2172512024154912e-02  8.9815689791894540e-03  5.5791217081625297e-03  2.0548414042366142e-03  -1.4883663135502006e-03  -4.9393723405016495e-03  -8.1845952109011362e-03  -1.1114123015580275e-02  -1.3627725816126717e-02  -1.5640294955407755e-02  -1.7086299415051916e-02  -1.7922959925084508e-02  -1.8131994744029118e-02  -1.7719959207149149e-02  -1.6717349132751934e-02  -1.5176733604561950e-02  -1.3170206476285747e-02  -1.0786399118865139e-02  -8.1272004456973326e-03  -5.3042187306038043e-03  -2.4349310889051129e-03  3.6156869692117267e-04  2.9692795719423863e-03  5.2804155879186852e-03  7.2007512718893175e-03  8.6548409121649898e-03  9.5906287369026261e-03  9.9828947664651526e-03  9.8349981319777666e-03  9.1784980341133287e-03  8.0704454353702163e-03  6.5884198262537311e-03  4.8236928555546472e-03  2.8731832396490958e-03  8.3107460451928880e-04  -1.2189404984513507e-03  -3.2098730294092531e-03  -5.0953709241507742e-03  -6.8509313898967392e-03  -8.4723104059033025e-03  -9.9714205541716599e-03  -1.1370336864276227e-02  -1.2694267143925908e-02  -1.3964457464947993e-02  -1.5191985227703316e-02  -1.6373252264683381e-02  -1.7487755515736253e-02  -1.8498418558341074e-02  -1.9354450941099593e-02  -1.9996397441040051e-02  -2.0362774040850483e-02  -2.0397484882784814e-02  -2.0057095123156482e-02  -1.9317016481214418e-02  -1.8175758338922342e-02  -1.6656610077997437e-02  -1.4806435964848911e-02  -1.2691648109968069e-02  -1.0391822933858765e-02  -7.9917783077331720e-03  -5.5731698426131227e-03  -3.2067489867069273e-03  -9.4633280336951038e-04  1.1747222632501656e-03  3.1441306102391723e-03  4.9683994071361209e-03  6.6681172684340713e-03  8.2716122492987113e-03  9.8079979108759811e-03  1.1300682355573357e-02  1.2762308505937328e-02  1.4191846256592772e-02  1.5574210078789830e-02  1.6882383658882377e-02  1.8081655258168211e-02  1.9135258841160570e-02  2.0010520088673066e-02  2.0684548843063720e-02  2.1148604683038582e-02  2.1410473096309692e-02  2.1494490898129409e-02  2.1439204079055661e-02  2.1292978192332921e-02  2.1108163786148680e-02  2.0934610826637220e-02  2.0813404664068183e-02  2.0771656040406563e-02  2.3974579394240487e-02  2.3966224988615975e-02  2.3936363252234461e-02  2.3865993148951124e-02  2.3724701146617372e-