<?xml version="1.0"?>
<VTKFile type="UnstructuredGrid"  version="0.1"  >
<UnstructuredGrid>
<Piece  NumberOfPoints="10201" NumberOfCells="20000">
<Points>
<DataArray  type="Float64"  NumberOfComponents="3"  format="ascii">0 0 0  0.25 0 0  0.5 0 0  0.75 0 0  1 0 0  1.25 0 0  1.5 0 0  1.75 0 0  2 0 0  2.25 0 0  2.5 0 0  2.75 0 0  3 0 0  3.25 0 0  3.5 0 0  3.75 0 0  4 0 0  4.25 0 0  4.5 0 0  4.75 0 0  5 0 0  5.25 0 0  5.5 0 0  5.75 0 0  6 0 0  6.25 0 0  6.5 0 0  6.75 0 0  7 0 0  7.25 0 0  7.5 0 0  7.75 0 0  8 0 0  8.25 0 0  8.5 0 0  8.75 0 0  9 0 0  9.25 0 0  9.5 0 0  9.75 0 0  10 0 0  10.25 0 0  10.5 0 0  10.75 0 0  11 0 0  11.25 0 0  11.5 0 0  11.75 0 0  12 0 0  12.25 0 0  12.5 0 0  12.75 0 0  13 0 0  13.25 0 0  13.5 0 0  13.75 0 0  14 0 0  14.25 0 0  14.5 0 0  14.75 0 0  15 0 0  15.25 0 0  15.5 0 0  15.75 0 0  16 0 0  16.25 0 0  16.5 0 0  16.75 0 0  17 0 0  17.25 0 0  17.5 0 0  17.75 0 0  18 0 0  18.25 0 0  18.5 0 0  18.75 0 0  19 0 0  19.25 0 0  19.5 0 0  19.75 0 0  20 0 0  20.25 0 0  20.5 0 0  20.75 0 0  21 0 0  21.25 0 0  21.5 0 0  21.75 0 0  22 0 0  22.25 0 0  22.5 0 0  22.75 0 0  23 0 0  23.25 0 0  23.5 0 0  23.75 0 0  24 0 0  24.25 0 0  24.5 0 0  24.75 0 0  25 0 0  0 0.25 0  0.25 0.25 0  0.5 0.25 0  0.75 0.25 0  1 0.25 0  1.25 0.25 0  1.5 0.25 0  1.75 0.25 0  2 0.25 0  2.25 0.25 0  2.5 0.25 0  2.75 0.25 0  3 0.25 0  3.25 0.25 0  3.5 0.25 0  3.75 0.25 0  4 0.25 0  4.25 0.25 0  4.5 0.25 0  4.75 0.25 0  5 0.25 0  5.25 0.25 0  5.5 0.25 0  5.75 0.25 0  6 0.25 0  6.25 0.25 0  6.5 0.25 0  6.75 0.25 0  7 0.25 0  7.25 0.25 0  7.5 0.25 0  7.75 0.25 0  8 0.25 0  8.25 0.25 0  8.5 0.25 0  8.75 0.25 0  9 0.25 0  9.25 0.25 0  9.5 0.25 0  9.75 0.25 0  10 0.25 0  10.25 0.25 0  10.5 0.25 0  10.75 0.25 0  11 0.25 0  11.25 0.25 0  11.5 0.25 0  11.75 0.25 0  12 0.25 0  12.25 0.25 0  12.5 0.25 0  12.75 0.25 0  13 0.25 0  13.25 0.25 0  13.5 0.25 0  13.75 0.25 0  14 0.25 0  14.25 0.25 0  14.5 0.25 0  14.75 0.25 0  15 0.25 0  15.25 0.25 0  15.5 0.25 0  15.75 0.25 0  16 0.25 0  16.25 0.25 0  16.5 0.25 0  16.75 0.25 0  17 0.25 0  17.25 0.25 0  17.5 0.25 0  17.75 0.25 0  18 0.25 0  18.25 0.25 0  18.5 0.25 0  18.75 0.25 0  19 0.25 0  19.25 0.25 0  19.5 0.25 0  19.75 0.25 0  20 0.25 0  20.25 0.25 0  20.5 0.25 0  20.75 0.25 0  21 0.25 0  21.25 0.25 0  21.5 0.25 0  21.75 0.25 0  22 0.25 0  22.25 0.25 0  22.5 0.25 0  22.75 0.25 0  23 0.25 0  23.25 0.25 0  23.5 0.25 0  23.75 0.25 0  24 0.25 0  24.25 0.25 0  24.5 0.25 0  24.75 0.25 0  25 0.25 0  0 0.5 0  0.25 0.5 0  0.5 0.5 0  0.75 0.5 0  1 0.5 0  1.25 0.5 0  1.5 0.5 0  1.75 0.5 0  2 0.5 0  2.25 0.5 0  2.5 0.5 0  2.75 0.5 0  3 0.5 0  3.25 0.5 0  3.5 0.5 0  3.75 0.5 0  4 0.5 0  4.25 0.5 0  4.5 0.5 0  4.75 0.5 0  5 0.5 0  5.25 0.5 0  5.5 0.5 0  5.75 0.5 0  6 0.5 0  6.25 0.5 0  6.5 0.5 0  6.75 0.5 0  7 0.5 0  7.25 0.5 0  7.5 0.5 0  7.75 0.5 0  8 0.5 0  8.25 0.5 0  8.5 0.5 0  8.75 0.5 0  9 0.5 0  9.25 0.5 0  9.5 0.5 0  9.75 0.5 0  10 0.5 0  10.25 0.5 0  10.5 0.5 0  10.75 0.5 0  11 0.5 0  11.25 0.5 0  11.5 0.5 0  11.75 0.5 0  12 0.5 0  12.25 0.5 0  12.5 0.5 0  12.75 0.5 0  13 0.5 0  13.25 0.5 0  13.5 0.5 0  13.75 0.5 0  14 0.5 0  14.25 0.5 0  14.5 0.5 0  14.75 0.5 0  15 0.5 0  15.25 0.5 0  15.5 0.5 0  15.75 0.5 0  16 0.5 0  16.25 0.5 0  16.5 0.5 0  16.75 0.5 0  17 0.5 0  17.25 0.5 0  17.5 0.5 0  17.75 0.5 0  18 0.5 0  18.25 0.5 0  18.5 0.5 0  18.75 0.5 0  19 0.5 0  19.25 0.5 0  19.5 0.5 0  19.75 0.5 0  20 0.5 0  20.25 0.5 0  20.5 0.5 0  20.75 0.5 0  21 0.5 0  21.25 0.5 0  21.5 0.5 0  21.75 0.5 0  22 0.5 0  22.25 0.5 0  22.5 0.5 0  22.75 0.5 0  23 0.5 0  23.25 0.5 0  23.5 0.5 0  23.75 0.5 0  24 0.5 0  24.25 0.5 0  24.5 0.5 0  24.75 0.5 0  25 0.5 0  0 0.75 0  0.25 0.75 0  0.5 0.75 0  0.75 0.75 0  1 0.75 0  1.25 0.75 0  1.5 0.75 0  1.75 0.75 0  2 0.75 0  2.25 0.75 0  2.5 0.75 0  2.75 0.75 0  3 0.75 0  3.25 0.75 0  3.5 0.75 0  3.75 0.75 0  4 0.75 0  4.25 0.75 0  4.5 0.75 0  4.75 0.75 0  5 0.75 0  5.25 0.75 0  5.5 0.75 0  5.75 0.75 0  6 0.75 0  6.25 0.75 0  6.5 0.75 0  6.75 0.75 0  7 0.75 0  7.25 0.75 0  7.5 0.75 0  7.75 0.75 0  8 0.75 0  8.25 0.75 0  8.5 0.75 0  8.75 0.75 0  9 0.75 0  9.25 0.75 0  9.5 0.75 0  9.75 0.75 0  10 0.75 0  10.25 0.75 0  10.5 0.75 0  10.75 0.75 0  11 0.75 0  11.25 0.75 0  11.5 0.75 0  11.75 0.75 0  12 0.75 0  12.25 0.75 0  12.5 0.75 0  12.75 0.75 0  13 0.75 0  13.25 0.75 0  13.5 0.75 0  13.75 0.75 0  14 0.75 0  14.25 0.75 0  14.5 0.75 0  14.75 0.75 0  15 0.75 0  15.25 0.75 0  15.5 0.75 0  15.75 0.75 0  16 0.75 0  16.25 0.75 0  16.5 0.75 0  16.75 0.75 0  17 0.75 0  17.25 0.75 0  17.5 0.75 0  17.75 0.75 0  18 0.75 0  18.25 0.75 0  18.5 0.75 0  18.75 0.75 0  19 0.75 0  19.25 0.75 0  19.5 0.75 0  19.75 0.75 0  20 0.75 0  20.25 0.75 0  20.5 0.75 0  20.75 0.75 0  21 0.75 0  21.25 0.75 0  21.5 0.75 0  21.75 0.75 0  22 0.75 0  22.25 0.75 0  22.5 0.75 0  22.75 0.75 0  23 0.75 0  23.25 0.75 0  23.5 0.75 0  23.75 0.75 0  24 0.75 0  24.25 0.75 0  24.5 0.75 0  24.75 0.75 0  25 0.75 0  0 1 0  0.25 1 0  0.5 1 0  0.75 1 0  1 1 0  1.25 1 0  1.5 1 0  1.75 1 0  2 1 0  2.25 1 0  2.5 1 0  2.75 1 0  3 1 0  3.25 1 0  3.5 1 0  3.75 1 0  4 1 0  4.25 1 0  4.5 1 0  4.75 1 0  5 1 0  5.25 1 0  5.5 1 0  5.75 1 0  6 1 0  6.25 1 0  6.5 1 0  6.75 1 0  7 1 0  7.25 1 0  7.5 1 0  7.75 1 0  8 1 0  8.25 1 0  8.5 1 0  8.75 1 0  9 1 0  9.25 1 0  9.5 1 0  9.75 1 0  10 1 0  10.25 1 0  10.5 1 0  10.75 1 0  11 1 0  11.25 1 0  11.5 1 0  11.75 1 0  12 1 0  12.25 1 0  12.5 1 0  12.75 1 0  13 1 0  13.25 1 0  13.5 1 0  13.75 1 0  14 1 0  14.25 1 0  14.5 1 0  14.75 1 0  15 1 0  15.25 1 0  15.5 1 0  15.75 1 0  16 1 0  16.25 1 0  16.5 1 0  16.75 1 0  17 1 0  17.25 1 0  17.5 1 0  17.75 1 0  18 1 0  18.25 1 0  18.5 1 0  18.75 1 0  19 1 0  19.25 1 0  19.5 1 0  19.75 1 0  20 1 0  20.25 1 0  20.5 1 0  20.75 1 0  21 1 0  21.25 1 0  21.5 1 0  21.75 1 0  22 1 0  22.25 1 0  22.5 1 0  22.75 1 0  23 1 0  23.25 1 0  23.5 1 0  23.75 1 0  24 1 0  24.25 1 0  24.5 1 0  24.75 1 0  25 1 0  0 1.25 0  0.25 1.25 0  0.5 1.25 0  0.75 1.25 0  1 1.25 0  1.25 1.25 0  1.5 1.25 0  1.75 1.25 0  2 1.25 0  2.25 1.25 0  2.5 1.25 0  2.75 1.25 0  3 1.25 0  3.25 1.25 0  3.5 1.25 0  3.75 1.25 0  4 1.25 0  4.25 1.25 0  4.5 1.25 0  4.75 1.25 0  5 1.25 0  5.25 1.25 0  5.5 1.25 0  5.75 1.25 0  6 1.25 0  6.25 1.25 0  6.5 1.25 0  6.75 1.25 0  7 1.25 0  7.25 1.25 0  7.5 1.25 0  7.75 1.25 0  8 1.25 0  8.25 1.25 0  8.5 1.25 0  8.75 1.25 0  9 1.25 0  9.25 1.25 0  9.5 1.25 0  9.75 1.25 0  10 1.25 0  10.25 1.25 0  10.5 1.25 0  10.75 1.25 0  11 1.25 0  11.25 1.25 0  11.5 1.25 0  11.75 1.25 0  12 1.25 0  12.25 1.25 0  12.5 1.25 0  12.75 1.25 0  13 1.25 0  13.25 1.25 0  13.5 1.25 0  13.75 1.25 0  14 1.25 0  14.25 1.25 0  14.5 1.25 0  14.75 1.25 0  15 1.25 0  15.25 1.25 0  15.5 1.25 0  15.75 1.25 0  16 1.25 0  16.25 1.25 0  16.5 1.25 0  16.75 1.25 0  17 1.25 0  17.25 1.25 0  17.5 1.25 0  17.75 1.25 0  18 1.25 0  18.25 1.25 0  18.5 1.25 0  18.75 1.25 0  19 1.25 0  19.25 1.25 0  19.5 1.25 0  19.75 1.25 0  20 1.25 0  20.25 1.25 0  20.5 1.25 0  20.75 1.25 0  21 1.25 0  21.25 1.25 0  21.5 1.25 0  21.75 1.25 0  22 1.25 0  22.25 1.25 0  22.5 1.25 0  22.75 1.25 0  23 1.25 0  23.25 1.25 0  23.5 1.25 0  23.75 1.25 0  24 1.25 0  24.25 1.25 0  24.5 1.25 0  24.75 1.25 0  25 1.25 0  0 1.5 0  0.25 1.5 0  0.5 1.5 0  0.75 1.5 0  1 1.5 0  1.25 1.5 0  1.5 1.5 0  1.75 1.5 0  2 1.5 0  2.25 1.5 0  2.5 1.5 0  2.75 1.5 0  3 1.5 0  3.25 1.5 0  3.5 1.5 0  3.75 1.5 0  4 1.5 0  4.25 1.5 0  4.5 1.5 0  4.75 1.5 0  5 1.5 0  5.25 1.5 0  5.5 1.5 0  5.75 1.5 0  6 1.5 0  6.25 1.5 0  6.5 1.5 0  6.75 1.5 0  7 1.5 0  7.25 1.5 0  7.5 1.5 0  7.75 1.5 0  8 1.5 0  8.25 1.5 0  8.5 1.5 0  8.75 1.5 0  9 1.5 0  9.25 1.5 0  9.5 1.5 0  9.75 1.5 0  10 1.5 0  10.25 1.5 0  10.5 1.5 0  10.75 1.5 0  11 1.5 0  11.25 1.5 0  11.5 1.5 0  11.75 1.5 0  12 1.5 0  12.25 1.5 0  12.5 1.5 0  12.75 1.5 0  13 1.5 0  13.25 1.5 0  13.5 1.5 0  13.75 1.5 0  14 1.5 0  14.25 1.5 0  14.5 1.5 0  14.75 1.5 0  15 1.5 0  15.25 1.5 0  15.5 1.5 0  15.75 1.5 0  16 1.5 0  16.25 1.5 0  16.5 1.5 0  16.75 1.5 0  17 1.5 0  17.25 1.5 0  17.5 1.5 0  17.75 1.5 0  18 1.5 0  18.25 1.5 0  18.5 1.5 0  18.75 1.5 0  19 1.5 0  19.25 1.5 0  19.5 1.5 0  19.75 1.5 0  20 1.5 0  20.25 1.5 0  20.5 1.5 0  20.75 1.5 0  21 1.5 0  21.25 1.5 0  21.5 1.5 0  21.75 1.5 0  22 1.5 0  22.25 1.5 0  22.5 1.5 0  22.75 1.5 0  23 1.5 0  23.25 1.5 0  23.5 1.5 0  23.75 1.5 0  24 1.5 0  24.25 1.5 0  24.5 1.5 0  24.75 1.5 0  25 1.5 0  0 1.75 0  0.25 1.75 0  0.5 1.75 0  0.75 1.75 0  1 1.75 0  1.25 1.75 0  1.5 1.75 0  1.75 1.75 0  2 1.75 0  2.25 1.75 0  2.5 1.75 0  2.75 1.75 0  3 1.75 0  3.25 1.75 0  3.5 1.75 0  3.75 1.75 0  4 1.75 0  4.25 1.75 0  4.5 1.75 0  4.75 1.75 0  5 1.75 0  5.25 1.75 0  5.5 1.75 0  5.75 1.75 0  6 1.75 0  6.25 1.75 0  6.5 1.75 0  6.75 1.75 0  7 1.75 0  7.25 1.75 0  7.5 1.75 0  7.75 1.75 0  8 1.75 0  8.25 1.75 0  8.5 1.75 0  8.75 1.75 0  9 1.75 0  9.25 1.75 0  9.5 1.75 0  9.75 1.75 0  10 1.75 0  10.25 1.75 0  10.5 1.75 0  10.75 1.75 0  11 1.75 0  11.25 1.75 0  11.5 1.75 0  11.75 1.75 0  12 1.75 0  12.25 1.75 0  12.5 1.75 0  12.75 1.75 0  13 1.75 0  13.25 1.75 0  13.5 1.75 0  13.75 1.75 0  14 1.75 0  14.25 1.75 0  14.5 1.75 0  14.75 1.75 0  15 1.75 0  15.25 1.75 0  15.5 1.75 0  15.75 1.75 0  16 1.75 0  16.25 1.75 0  16.5 1.75 0  16.75 1.75 0  17 1.75 0  17.25 1.75 0  17.5 1.75 0  17.75 1.75 0  18 1.75 0  18.25 1.75 0  18.5 1.75 0  18.75 1.75 0  19 1.75 0  19.25 1.75 0  19.5 1.75 0  19.75 1.75 0  20 1.75 0  20.25 1.75 0  20.5 1.75 0  20.75 1.75 0  21 1.75 0  21.25 1.75 0  21.5 1.75 0  21.75 1.75 0  22 1.75 0  22.25 1.75 0  22.5 1.75 0  22.75 1.75 0  23 1.75 0  23.25 1.75 0  23.5 1.75 0  23.75 1.75 0  24 1.75 0  24.25 1.75 0  24.5 1.75 0  24.75 1.75 0  25 1.75 0  0 2 0  0.25 2 0  0.5 2 0  0.75 2 0  1 2 0  1.25 2 0  1.5 2 0  1.75 2 0  2 2 0  2.25 2 0  2.5 2 0  2.75 2 0  3 2 0  3.25 2 0  3.5 2 0  3.75 2 0  4 2 0  4.25 2 0  4.5 2 0  4.75 2 0  5 2 0  5.25 2 0  5.5 2 0  5.75 2 0  6 2 0  6.25 2 0  6.5 2 0  6.75 2 0  7 2 0  7.25 2 0  7.5 2 0  7.75 2 0  8 2 0  8.25 2 0  8.5 2 0  8.75 2 0  9 2 0  9.25 2 0  9.5 2 0  9.75 2 0  10 2 0  10.25 2 0  10.5 2 0  10.75 2 0  11 2 0  11.25 2 0 
[...]
<PointData  Scalars="f_26"> 
<DataArray  type="Float64"  Name="f_26"  format="ascii">9.9994972965304141e-01  9.9994603755795453e-01  9.9993582900645273e-01  9.9991759296159766e-01  9.9988893726746053e-01  9.9984617681250165e-01  9.9978383544693428e-01  9.9969393771776738e-01  9.9956498636648083e-01  9.9938049208366675e-01  9.9911686823670998e-01  9.9874042493868964e-01  9.9820308655582202e-01  9.9743630351470480e-01  9.9634241918250455e-01  9.9478247030861133e-01  9.9255903228820619e-01  9.8939226836010774e-01  9.8488684039410201e-01  9.7848690670011307e-01  9.6941636233381756e-01  9.5660239986920093e-01  9.3858360421135578e-01  9.1341125289098479e-01  8.7856734108385826e-01  8.3094812524873307e-01  7.6699687340023104e-01  6.8310058451459155e-01  5.7635451672260873e-01  4.4568283656749152e-01  2.9304466051826439e-01  1.2414766977912756e-01  -5.1971506245037546e-02  -2.2468335568992481e-01  -3.8419809098157737e-01  -5.2359356728952433e-01  -6.3964089628761489e-01  -7.3240592146979666e-01  -8.0417234930403081e-01  -8.5829275281273498e-01  -8.9831937869371248e-01  -9.2749520989072176e-01  -9.4853539314613011e-01  -9.6359075284181661e-01  -9.7430317162411728e-01  -9.8189466891142929e-01  -9.8725893810229137e-01  -9.9104159465840880e-01  -9.9370504475042931e-01  -9.9557847689454038e-01  -9.9689524333863933e-01  -9.9782026271299973e-01  -9.9846984067962763e-01  -9.9892587564329771e-01  -9.9924597578867036e-01  -9.9947063244566037e-01  -9.9962829053278168e-01  -9.9973892474842596e-01  -9.9981655797548419e-01  -9.9987103283888523e-01  -9.9990925692893262e-01  -9.9993607758038117e-01  -9.9995489616794131e-01  -9.9996809936009479e-01  -9.9997736181054253e-01  -9.9998385858244365e-01  -9.9998841420904649e-01  -9.9999160728370351e-01  -9.9999384384294665e-01  -9.9999540885231319e-01  -9.9999650232833026e-01  -9.9999726468120109e-01  -9.9999779449494097e-01  -9.9999816100186811e-01  -9.9999841283485102e-01  -9.9999858416817022e-01  -9.9999869902631644e-01  -9.9999877430745665e-01  -9.9999882190512368e-01  -9.9999885019721446e-01  -9.9999886509107316e-01  -9.9999887075710214e-01  -9.9999887014381561e-01  -9.9999886533953120e-01  -9.9999885782643472e-01  -9.9999884865911182e-01  -9.9999883859006355e-01  -9.9999882815800523e-01  -9.9999881775003419e-01  -9.9999880764544602e-01  -9.9999879804665870e-01  -9.9999878910107665e-01  -9.9999878091658534e-01  -9.9999877357257361e-01  -9.9999876712782643e-01  -9.9999876162626933e-01  -9.9999875710135611e-01  -9.9999875358000123e-01  -9.9999875108794978e-01  -9.9999874966311941e-01  -9.9999874940481981e-01  9.9994918214300577e-01  9.9994583753926569e-01  9.9993566091072728e-01  9.9991736918458862e-01  9.9988861280023000e-01  9.9984570611044532e-01  9.9978315806670748e-01  9.9969296863189383e-01  9.9956360492670671e-01  9.9937852722280573e-01  9.9911407799593721e-01  9.9873646813330252e-01  9.9819748389877061e-01  9.9742838504622755e-01  9.9633125473866080e-01  9.9476678067343738e-01  9.9253708196989388e-01  9.8936174920903974e-01  9.8484477320659358e-01  9.7842962320245619e-01  9.6933969340277493e-01  9.5650229839873957e-01  9.3845757047522260e-01  9.1326105656453915e-01  8.7840348161368742e-01  8.3079587920017939e-01  7.6690212889507892e-01  6.8313080167912088e-01  5.7658758216812289e-01  4.4617867426662106e-01  2.9380600925022698e-01  1.2509357849932740e-01  -5.0991856762639003e-02  -2.2383402265652094e-01  -3.8359124739955286e-01  -5.2325792064426202e-01  -6.3953520865775138e-01  -7.3245622458561044e-01  -8.0430562539864070e-01  -8.5845442459545451e-01  -8.9847637194205632e-01  -9.2763157610821045e-01  -9.4864618729394379e-01  -9.6367694417588301e-01  -9.7436827588373121e-01  -9.8194284675398213e-01  -9.8729407675356007e-01  -9.9106695845071135e-01  -9.9372321602254921e-01  -9.9559142424269587e-01  -9.9690443147937546e-01  -9.9782676361585654e-01  -9.9847442991448410e-01  -9.9892910978374039e-01  -9.9924825191721256e-01  -9.9947223265095009e-01  -9.9962941458120980e-01  -9.9973971377524040e-01  -9.9981711151451347e-01  -9.9987142098796122e-01  -9.9990952900137331e-01  -9.9993626823719972e-01  -9.9995502975367689e-01  -9.9996819296278117e-01  -9.9997742741814954e-01  -9.9998390460086717e-01  -9.9998844652970764e-01  -9.9999163003383507e-01  -9.9999385991255196e-01  -9.9999542026407551e-01  -9.9999651049715643e-01  -9.9999727059625199e-01  -9.9999779884724849e-01  -9.9999816427377231e-01  -9.9999841536265921e-01  -9.9999858618604109e-01  -9.9999870069698638e-01  -9.9999877574374796e-01  -9.9999882318499578e-01  -9.9999885137429545e-01  -9.9999886620202749e-01  -9.9999887182678426e-01  -9.9999887118887609e-01  -9.9999886637093860e-01  -9.9999885885124029e-01  -9.9999884968168407e-01  -9.9999883961295211e-01  -9.9999882918254379e-01  -9.9999881877676144e-01  -9.9999880867439661e-01  -9.9999879907756295e-01  -9.9999879013349235e-01  -9.9999878194997882e-01  -9.9999877460635556e-01  -9.9999876816133615e-01  -9.9999876265866627e-01  -9.9999875813127281e-01  -9.9999875460438570e-01  -9.9999875209771716e-01  -9.9999875062485000e-01  -9.9999875017694007e-01  9.9994894530301681e-01  9.9994567815837498e-01  9.9993552491620163e-01  9.9991721095214081e-01  9.9988839943108454e-01  9.9984540656403620e-01  9.9978273525648864e-01  9.9969237341029171e-01  9.9956277010965322e-01  9.9937736050909542e-01  9.9911245305942875e-01  9.9873421342469237e-01  9.9819436903529912e-01  9.9742410537126236e-01  9.9632541611580527e-01  9.9475888954486513e-01  9.9252655134074863e-01  9.8934794142098248e-01  9.8482711792849387e-01  9.7840787745167468e-01  9.6931445220873913e-01  9.5647591693143874e-01  9.3843570133244503e-01  9.1325498206257372e-01  8.7843320819993054e-01  8.3089336813065995e-01  7.6711290639452112e-01  6.8351074446991511e-01  5.7719109619256748e-01  4.4703709069734249e-01  2.9490242015086549e-01  1.2634911564372991e-01  -4.9705119587584876e-02  -2.2265375040187754e-01  -3.8261998772787253e-01  -5.2253827432350020e-01  -6.3905399501779303e-01  -7.3216687050011631e-01  -8.0415216967792602e-01  -8.5838725220990175e-01  -8.9845847024459091e-01  -9.2763851493347760e-01  -9.4866338991999677e-01  -9.6369653234898012e-01  -9.7438648441239473e-01  -9.8195822537510979e-01  -9.8730636423718121e-01  -9.9107643242854437e-01  -9.9373034470415011e-01  -9.9559669544267959e-01  -9.9690827919357028e-01  -9.9782954476686103e-01  -9.9847642473463094e-01  -9.9893053177887536e-01  -9.9924926042520201e-01  -9.9947294483019777e-01  -9.9962991562930692e-01  -9.9974006512538782e-01  -9.9981735716967446e-01  -9.9987159229657530e-01  -9.9990964819648176e-01  -9.9993635102644929e-01  -9.9995508719691950e-01  -9.9996823282330860e-01  -9.9997745512948744e-01  -9.9998392395523084e-01  -9.9998846016630993e-01  -9.9999163978405203e-01  -9.9999386704317306e-01  -9.9999542564826438e-01  -9.9999651473430273e-01  -9.9999727409579209e-01  -9.9999780188715381e-01  -9.9999816704126820e-01  -9.9999841798251055e-01  -9.9999858874015812e-01  -9.9999870323798445e-01  -9.9999877830430561e-01  -9.9999882578430099e-01  -9.9999885402247712e-01  -9.9999886890319778e-01  -9.9999887458112402e-01  -9.9999887399406429e-01  -9.9999886922313097e-01  -9.9999886174573960e-01  -9.9999885261339949e-01  -9.9999884257671179e-01  -9.9999883217330721e-01  -9.9999882178975930e-01  -9.9999881170521909e-01  -9.9999880212220682e-01  -9.9999879318837293e-01  -9.9999878501190798e-01  -9.9999877767247580e-01  -9.9999877122898673e-01  -9.9999876572512347e-01  -9.9999876119322062e-01  -9.9999875765680513e-01  -9.9999875513164582e-01  -9.9999875362426083e-01  -9.9999875312567765e-01  9.9994883946678093e-01  9.9994559207058031e-01  9.9993545156298869e-01  9.9991713445475816e-01  9.9988830570750187e-01  9.9984528357623015e-01  9.9978257140924698e-01  9.9969215635548536e-01  9.9956248637588196e-01  9.9937699620109477e-01  9.9911199619950553e-01  9.9873365910988021e-01  9.9819372955461139e-01  9.9742342902019432e-01  9.9632482107117548e-01  9.9475862344816368e-01  9.9252709408494089e-01  9.8935017922148283e-01  9.8483263231000584e-01  9.7841941376680897e-01  9.6933665634211752e-01  9.5651644619240472e-01  9.3850680089568084e-01  9.1337551932674121e-01  8.7863088725650362e-01  8.3120630517868022e-01  7.6758892344293428e-01  6.8420194945215917e-01  5.7814150510560702e-01  4.4826366213378205e-01  2.9637546844887769e-01  1.2798370972536491e-01  -4.8036214406855127e-02  -2.2108670162125077e-01  -3.8126199718706388e-01  -5.2144460451858554e-01  -6.3822787982498608e-01  -7.3157562862316050e-01  -8.0374721083155776e-01  -8.5811935496511405e-01  -8.9828591787811785e-01  -9.2752956766273209e-01  -9.4859557795982208e-01  -9.6365472801274887e-01  -9.7436085979255926e-01  -9.8194255559891652e-01  -9.8729677643762037e-01  -9.9107054653747773e-01  -9.9372670981304256e-01  -9.9559443128979508e-01  -9.9690685287760028e-01  -9.9782863366057961e-01  -9.9847583312200039e-01  -9.9893014046991846e-01  -9.9924899641032705e-01  -9.9947276303278421e-01  -9.9962978793377100e-01  -9.9973997377170065e-01  -9.9981729076692749e-01  -9.9987154340831708e-01  -9.9990961187071525e-01  -9.9993632389473186e-01  -9.9995506691745728e-01  -9.9996821773290778e-01  -9.9997744402306421e-01  -9.9998391594382763e-01  -9.9998845458390995e-01  -9.9999163612510999e-01  -9.9999386491978148e-01  -9.9999542476010705e-01  -9.9999651484711549e-01  -9.9999727502561409e-01  -9.9999780348861822e-01  -9.9999816919877682e-01  -9.9999842060351374e-01  -9.9999859175000028e-01  -9.9999870657593393e-01  -9.9999878192049019e-01  -9.9999882963734288e-01  -9.9999885807767175e-01  -9.9999887313111568e-01  -9.9999887895654349e-01  -9.9999887849516023e-01  -9.9999887383086350e-01  -9.9999886644339508e-01  -9.9999885738624761e-01  -9.9999884741174938e-01  -9.9999883705906523e-01  -9.9999882671615281e-01  -9.9999881666342505e-01  -9.9999880710455646e-01  -9.9999879818824600e-01  -9.9999879002361614e-01  -9.9999878269112008e-01  -9.9999877625026778e-01  -9.9999877074507193e-01  -9.9999876620781092e-01  -9.9999876266145205e-01  -9.9999876012085698e-01  -9.9999875859279930e-01  -9.9999875807553495e-01  9.9994881656263146e-01  9.9994557759685165e-01  9.9993545082720303e-01  9.9991714886326932e-01  9.9988833838982194e-01  9.9984534234056077e-01  9.9978267103281260e-01  9.9969232176047307e-01  9.9956275778306758e-01  9.9937743743821161e-01  9.9911270786457296e-01  9.9873479923230624e-01  9.9819554588458526e-01  9.9742630936372501e-01  9.9632937156016976e-01  9.9476578981970987e-01  9.9253834858293444e-01  9.8936780623338894e-01  9.8486015944269356e-01  9.7846225034896761e-01  9.6940301318562327e-01  9.5661860593993397e-01  9.3866276047202979e-01  9.1361088707320026e-01  8.7898061902921043e-01  8.3171534633925859e-01  7.6831013225081690e-01  6.8518915569664474e-01  5.7943605324620651e-01  4.4987546252978899e-01  2.9826466289404790e-01  1.3005375762768973e-01  -4.5924707671188642e-02  -2.1908285060167801e-01  -3.7948693729750382e-01  -5.1996735777316549e-01  -6.3706289852654008e-01  -7.3069677633203445e-01  -8.0310707882905508e-01  -8.5766537780632857e-01  -8.9797016196611101e-01  -9.2731288658721744e-01  -9.4844816700946355e-01  -9.6355493189404773e-01  -9.7429343401331447e-01  -9.8189699342003323e-01  -9.8726593515645689e-01  -9.9104961063142460e-01  -9.9371244688417593e-01  -9.9558467485077762e-01  -9.9690015001886512e-01  -9.9782400802161086e-01  -9.9847262657451874e-01  -9.9892790773679441e-01  -9.9924743497399338e-01  -9.9947166646343122e-01  -9.9962901473652421e-01  -9.9973942652351311e-01  -9.9981690209010443e-01  -9.9987126650037117e-01  -9.9990941408218059e-01  -9.9993618235436699e-01  -9.9995496553875174e-01  -9.9996814515667931e-01  -9.9997739219728110e-01  -9.9998387913914155e-01  -9.9998842870841076e-01  -9.9999161824544902e-01  -9.9999385292521703e-01  -9.9999541712593221e-01  -9.9999651046746618e-01  -9.9999727309489983e-01  -9.9999780341715394e-01  -9.9999817055256224e-01  -9.9999842306112163e-01  -9.9999859507162936e-01  -9.9999871058113965e-01  -9.9999878647212692e-01  -9.9999883462996608e-01  -9.9999886342915012e-01  -9.9999887877656279e-01  -9.9999888484392563e-01  -9.9999888458211983e-01  -9.9999888008242377e-01  -9.9999887283030331e-01  -9.9999886388378045e-01  -9.9999885399885047e-01  -9.9999884371771897e-01  -9.9999883343092544e-01  -9.9999882342111956e-01  -9.9999881389394130e-01  -9.9999880499982841e-01  -9.9999879684943571e-01  -9.9999878952454291e-01  -9.9999878308576617e-01  -9.9999877757798306e-01  -9.9999877303408946e-01  -9.9999876947750888e-01  -9.9999876692374767e-01  -9.9999876538134791e-01  -9.9999876485296968e-01  9.9994886222019796e-01  9.9994563141956372e-01  9.9993552597970392e-01  9.9991725921601982e-01  9.9988850247075733e-01  9.9984558755713637e-01  9.9978303873996388e-01  9.9969287430897380e-01  9.9956358894628738e-01  9.9937868807163366e-01  9.9911458946435527e-01  9.9873762934765353e-01  9.9819980128413555e-01  9.9743270572890741e-01  9.9633898264790000e-01  9.9478022495529306e-01  9.9256001546675965e-01  9.8940029659652406e-01  9.8490880750606091e-01  9.7853492580821699e-01  9.6951121483025959e-01  9.5677890423498413e-01  9.3889856911994207e-01  9.1395437760371923e-01  8.7947426605085777e-01  8.3241205765110471e-01  7.6927024415694312e-01  6.8647212829226811e-01  5.8108534414151092e-01  4.5189793288762475e-01  3.0061113663545236e-01  1.3261210839016385e-01  -4.3314243668972512e-02  -2.1659166563242477e-01  -3.7725678660655482e-01  -5.1808306814859117e-01  -6.3554813556550538e-01  -7.2952796659296526e-01  -8.0223401065840960e-01  -8.5702921055362513e-01  -8.9751505248450014e-01  -9.2699155071831119e-01  -9.4822331397953696e-01  -9.6339850116924197e-01  -9.7418497124185321e-01  -9.8182190756159227e-01  -9.8721396808749373e-01  -9.9101361884814188e-01  -9.9368748520857153e-01  -9.9556733129300534e-01  -9.9688807386975076e-01  -9.9781557996113546e-01  -9.9846673021558940e-01  -9.9892377230901608e-01  -9.9924452732510738e-01  -9.9946961700767312e-01  -9.9962756667578478e-01  -9.9973840099361977e-01  -9.9981617420029445e-01  -9.9987074882897264e-01  -9.9990904528298086e-01  -9.9993591927247194e-01  -9.9995477774158514e-01  -9.9996801113090317e-01  -9.9997729669763080e-01  -9.9998381133573488e-01  -9.9998838088890973e-01  -9.9999158490373274e-01  -9.9999383011995591e-01  -9.9999540202808701e-01  -9.9999650104034377e-01  -9.9999726786743270e-01  -9.9999780132289406e-01  -9.9999817081510345e-01  -9.9999842511239811e-01  -9.9999859849354822e-01  -9.9999871506381022e-01  -9.9999879178392181e-01  -9.9999884059603472e-01  -9.9999886991598363e-01  -9.9999888568089768e-01  -9.9999889208476667e-01  -9.9999889209500481e-01  -9.9999888781530299e-01  -9.9999888074058152e-01  -9.9999887193619275e-01  -9.9999886216393796e-01  -9.9999885197072924e-01  -9.9999884175101439e-01  -9.9999883179076121e-01  -9.9999882229847903e-01  -9.9999881342711761e-01  -9.9999880528954188e-01  -9.9999879796946989e-01  -9.9999879152920046e-01  -9.9999878601505232e-01  -9.9999878146116172e-01  -9.9999877789209624e-01  -9.9999877532463988e-01  -9.9999877376909541e-01  -9.9999877323052178e-01  9.9994897209526701e-01  9.9994575217372972e-01  9.9993567871286992e-01  9.9991746883625188e-01  9.9988880199517716e-01  9.9984602371538467e-01  9.9978367950858327e-01  9.9969381956616765e-01  9.9956498597047483e-01  9.9938075433406293e-01  9.9911764625630572e-01  9.9874215140666389e-01  9.9820648995898575e-01  9.9744259664088042e-01  9.9635360363510150e-01  9.9480182674260420e-01  9.9259190633559391e-01  9.8944732333507901e-01  9.8497803712063858e-01  9.7863659263104408e-01  9.6965999789869362e-01  9.5699557365447296e-01  9.3921195682797021e-01  9.1440343741881869e-01  8.8010962443225593e-01  8.3329587346788503e-01  7.7047246970607242e-01  6.8806079967793121e-01  5.8310926865898283e-01  4.5436333881676527e-01  3.0345969621546320e-01  1.3571305925749164e-01  -4.0146922588687066e-02  -2.1355850161475509e-01  -3.7452560828701459e-01  -5.1575706873158311e-01  -6.3365988537435836e-01  -7.2805435159376997e-01  -8.0111936979475551e-01  -8.5620608741641935e-01  -8.9691799806475514e-01  -9.2656408085622266e-01  -9.4792006514434091e-01  -9.6318472147732948e-01  -9.7403487569459113e-01  -9.8171677904819821e-01  -9.8714042273012581e-01  -9.9096218356299437e-01  -9.9365150025297799e-01  -9.9554213490618426e-01  -9.9687041113267627e-01  -9.9780318109106070e-01  -9.9845801293590908e-01  -9.9891763325060279e-01  -9.9924019646647777e-01  -9.9946655636226212e-01  -9.9962539986399646e-01  -9.9973686430022912e-01  -9.9981508255127638e-01  -9.9986997212094786e-01  -9.9990849189677422e-01  -9.9993552457502344e-01  -9.9995449605497000e-01  -9.9996781011412117e-01  -9.9997715340982773e-01  -9.9998370947298953e-01  -9.9998830884143297e-01  -9.9999153438754662e-01  -9.9999379521151832e-01  -9.9999537848202813e-01  -9.9999648580645639e-01  -9.9999725874814194e-01  -9.9999779672993838e-01  -9.9999816959640386e-01  -9.9999842642867232e-01  -9.9999860173024013e-01  -9.9999871976813759e-01  -9.9999879761981958e-01  -9.9999884731187116e-01  -9.9999887732140791e-01  -9.9999889363022698e-01  -9.9999890046506135e-01  -9.9999890081751064e-01  -9.9999889680931142e-01  -9.9999888994902630e-01  -9.9999888131249393e-01  -9.9999887166973722e-01  -9.9999886157426154e-01  -9.9999885142592893e-01  -9.9999884151525653e-01  -9.9999883205465367e-01  -9.9999882320046563e-01  -9.9999881506854171e-01  -9.9999880774523220e-01  -9.9999880129515462e-01  -9.9999879576666628e-01  -9.9999879119570623e-01  -9.9999878760848138e-01  -9.9999878502335515e-01  -9.9999878345223159e-01  -9.9999878290167477e-01  9.9994914540459345e-01  9.9994594003501214e-01  9.9993591066871912e-01  9.9991778057175407e-01  9.9988924073961216e-01  9.9984665546292817e-01  9.9978459898875838e-01  9.9969516440941408e-01  9.9956695717656030e-01  9.9938364607838204e-01  9.9912188941385061e-01  9.9874837712423803e-01  9.9821562240785278e-01  9.9745598805110114e-01  9.9637323023608115e-01  9.9483057172632938e-01  9.9263396572921703e-01  9.8950878259925357e-01  9.8506767913149240e-01  9.7876700767583824e-01  9.6984906449853792e-01  9.5726834698143060e-01  9.3960290500210353e-01  9.1495874925103882e-01  8.8088890166327083e-01  8.3437186281824383e-01  7.7192666843580804e-01  6.8997223451253809e-01  5.8553456485769129e-01  4.5730980275592009e-01  3.0685980194823392e-01  1.3941491546615856e-01  -3.6360330859649764e-02  -2.0992256657447531e-01  -3.7123922854593167e-01  -5.1294479348765176e-01  -6.3136389894313227e-01  -7.2625099773381274e-01  -7.9974569620061575e-01  -8.5518406037980388e-01  -8.9617088515725662e-01  -9.2602493527498075e-01  -9.4753457553541975e-01  -9.6291086917464086e-01  -9.7384117715349205e-01  -9.8158015727083325e-01  -9.8704421736843273e-01  -9.9089449186755707e-01  -9.9360387888927615e-01  -9.9550862293051934e-01  -9.9684681296647992e-01  -9.9778654905007325e-01  -9.9844627796577523e-01  -9.9890934341284610e-01  -9.9923433266167783e-01  -9.9946240289588817e-01  -9.9962245370839364e-01  -9.9973477154775992e-01  -9.9981359392519309e-01  -9.9986891182389792e-01  -9.9990773578745262e-01  -9.9993498486816990e-01  -9.9995411058470296e-01  -9.9996753479147404e-01  -9.9997695691799204e-01  -9.9998356953173739e-01  -9.9998820957313062e-01  -9.9999146445742004e-01  -9.9999374651278006e-01  -9.9999534520493483e-01  -9.9999646377826057e-01  -9.9999724496444498e-01  -9.9999778902146641e-01  -9.9999816639174044e-01  -9.9999842658508042e-01  -9.9999860441287303e-01  -9.9999872436368908e-01  -9.9999880367472327e-01  -9.9999885448802539e-01  -9.9999888536443149e-01  -9.9999890234668587e-01  -9.9999890970612693e-01  -9.9999891046723366e-01  -9.9999890677620951e-01  -9.9999890016005177e-01  -9.9999889170870848e-01  -9.9999888220320943e-01  -9.9999887220583605e-01  -9.9999886212361300e-01  -9.9999885225304042e-01  -9.9999884281163132e-01  -9.9999883396015843e-01  -9.9999882581835708e-01  -9.9999881847601024e-01  -9.9999881200077190e-01  -9.9999880644368033e-01  -9.9999880184303802e-01  -9.9999879822713611e-01  -9.9999879561617500e-01  -9.9999879402363878e-