<?xml version="1.0"?>
<VTKFile type="UnstructuredGrid"  version="0.1"  >
<UnstructuredGrid>
<Piece  NumberOfPoints="10201" NumberOfCells="20000">
<Points>
<DataArray  type="Float64"  NumberOfComponents="3"  format="ascii">0 0 0  0.25 0 0  0.5 0 0  0.75 0 0  1 0 0  1.25 0 0  1.5 0 0  1.75 0 0  2 0 0  2.25 0 0  2.5 0 0  2.75 0 0  3 0 0  3.25 0 0  3.5 0 0  3.75 0 0  4 0 0  4.25 0 0  4.5 0 0  4.75 0 0  5 0 0  5.25 0 0  5.5 0 0  5.75 0 0  6 0 0  6.25 0 0  6.5 0 0  6.75 0 0  7 0 0  7.25 0 0  7.5 0 0  7.75 0 0  8 0 0  8.25 0 0  8.5 0 0  8.75 0 0  9 0 0  9.25 0 0  9.5 0 0  9.75 0 0  10 0 0  10.25 0 0  10.5 0 0  10.75 0 0  11 0 0  11.25 0 0  11.5 0 0  11.75 0 0  12 0 0  12.25 0 0  12.5 0 0  12.75 0 0  13 0 0  13.25 0 0  13.5 0 0  13.75 0 0  14 0 0  14.25 0 0  14.5 0 0  14.75 0 0  15 0 0  15.25 0 0  15.5 0 0  15.75 0 0  16 0 0  16.25 0 0  16.5 0 0  16.75 0 0  17 0 0  17.25 0 0  17.5 0 0  17.75 0 0  18 0 0  18.25 0 0  18.5 0 0  18.75 0 0  19 0 0  19.25 0 0  19.5 0 0  19.75 0 0  20 0 0  20.25 0 0  20.5 0 0  20.75 0 0  21 0 0  21.25 0 0  21.5 0 0  21.75 0 0  22 0 0  22.25 0 0  22.5 0 0  22.75 0 0  23 0 0  23.25 0 0  23.5 0 0  23.75 0 0  24 0 0  24.25 0 0  24.5 0 0  24.75 0 0  25 0 0  0 0.25 0  0.25 0.25 0  0.5 0.25 0  0.75 0.25 0  1 0.25 0  1.25 0.25 0  1.5 0.25 0  1.75 0.25 0  2 0.25 0  2.25 0.25 0  2.5 0.25 0  2.75 0.25 0  3 0.25 0  3.25 0.25 0  3.5 0.25 0  3.75 0.25 0  4 0.25 0  4.25 0.25 0  4.5 0.25 0  4.75 0.25 0  5 0.25 0  5.25 0.25 0  5.5 0.25 0  5.75 0.25 0  6 0.25 0  6.25 0.25 0  6.5 0.25 0  6.75 0.25 0  7 0.25 0  7.25 0.25 0  7.5 0.25 0  7.75 0.25 0  8 0.25 0  8.25 0.25 0  8.5 0.25 0  8.75 0.25 0  9 0.25 0  9.25 0.25 0  9.5 0.25 0  9.75 0.25 0  10 0.25 0  10.25 0.25 0  10.5 0.25 0  10.75 0.25 0  11 0.25 0  11.25 0.25 0  11.5 0.25 0  11.75 0.25 0  12 0.25 0  12.25 0.25 0  12.5 0.25 0  12.75 0.25 0  13 0.25 0  13.25 0.25 0  13.5 0.25 0  13.75 0.25 0  14 0.25 0  14.25 0.25 0  14.5 0.25 0  14.75 0.25 0  15 0.25 0  15.25 0.25 0  15.5 0.25 0  15.75 0.25 0  16 0.25 0  16.25 0.25 0  16.5 0.25 0  16.75 0.25 0  17 0.25 0  17.25 0.25 0  17.5 0.25 0  17.75 0.25 0  18 0.25 0  18.25 0.25 0  18.5 0.25 0  18.75 0.25 0  19 0.25 0  19.25 0.25 0  19.5 0.25 0  19.75 0.25 0  20 0.25 0  20.25 0.25 0  20.5 0.25 0  20.75 0.25 0  21 0.25 0  21.25 0.25 0  21.5 0.25 0  21.75 0.25 0  22 0.25 0  22.25 0.25 0  22.5 0.25 0  22.75 0.25 0  23 0.25 0  23.25 0.25 0  23.5 0.25 0  23.75 0.25 0  24 0.25 0  24.25 0.25 0  24.5 0.25 0  24.75 0.25 0  25 0.25 0  0 0.5 0  0.25 0.5 0  0.5 0.5 0  0.75 0.5 0  1 0.5 0  1.25 0.5 0  1.5 0.5 0  1.75 0.5 0  2 0.5 0  2.25 0.5 0  2.5 0.5 0  2.75 0.5 0  3 0.5 0  3.25 0.5 0  3.5 0.5 0  3.75 0.5 0  4 0.5 0  4.25 0.5 0  4.5 0.5 0  4.75 0.5 0  5 0.5 0  5.25 0.5 0  5.5 0.5 0  5.75 0.5 0  6 0.5 0  6.25 0.5 0  6.5 0.5 0  6.75 0.5 0  7 0.5 0  7.25 0.5 0  7.5 0.5 0  7.75 0.5 0  8 0.5 0  8.25 0.5 0  8.5 0.5 0  8.75 0.5 0  9 0.5 0  9.25 0.5 0  9.5 0.5 0  9.75 0.5 0  10 0.5 0  10.25 0.5 0  10.5 0.5 0  10.75 0.5 0  11 0.5 0  11.25 0.5 0  11.5 0.5 0  11.75 0.5 0  12 0.5 0  12.25 0.5 0  12.5 0.5 0  12.75 0.5 0  13 0.5 0  13.25 0.5 0  13.5 0.5 0  13.75 0.5 0  14 0.5 0  14.25 0.5 0  14.5 0.5 0  14.75 0.5 0  15 0.5 0  15.25 0.5 0  15.5 0.5 0  15.75 0.5 0  16 0.5 0  16.25 0.5 0  16.5 0.5 0  16.75 0.5 0  17 0.5 0  17.25 0.5 0  17.5 0.5 0  17.75 0.5 0  18 0.5 0  18.25 0.5 0  18.5 0.5 0  18.75 0.5 0  19 0.5 0  19.25 0.5 0  19.5 0.5 0  19.75 0.5 0  20 0.5 0  20.25 0.5 0  20.5 0.5 0  20.75 0.5 0  21 0.5 0  21.25 0.5 0  21.5 0.5 0  21.75 0.5 0  22 0.5 0  22.25 0.5 0  22.5 0.5 0  22.75 0.5 0  23 0.5 0  23.25 0.5 0  23.5 0.5 0  23.75 0.5 0  24 0.5 0  24.25 0.5 0  24.5 0.5 0  24.75 0.5 0  25 0.5 0  0 0.75 0  0.25 0.75 0  0.5 0.75 0  0.75 0.75 0  1 0.75 0  1.25 0.75 0  1.5 0.75 0  1.75 0.75 0  2 0.75 0  2.25 0.75 0  2.5 0.75 0  2.75 0.75 0  3 0.75 0  3.25 0.75 0  3.5 0.75 0  3.75 0.75 0  4 0.75 0  4.25 0.75 0  4.5 0.75 0  4.75 0.75 0  5 0.75 0  5.25 0.75 0  5.5 0.75 0  5.75 0.75 0  6 0.75 0  6.25 0.75 0  6.5 0.75 0  6.75 0.75 0  7 0.75 0  7.25 0.75 0  7.5 0.75 0  7.75 0.75 0  8 0.75 0  8.25 0.75 0  8.5 0.75 0  8.75 0.75 0  9 0.75 0  9.25 0.75 0  9.5 0.75 0  9.75 0.75 0  10 0.75 0  10.25 0.75 0  10.5 0.75 0  10.75 0.75 0  11 0.75 0  11.25 0.75 0  11.5 0.75 0  11.75 0.75 0  12 0.75 0  12.25 0.75 0  12.5 0.75 0  12.75 0.75 0  13 0.75 0  13.25 0.75 0  13.5 0.75 0  13.75 0.75 0  14 0.75 0  14.25 0.75 0  14.5 0.75 0  14.75 0.75 0  15 0.75 0  15.25 0.75 0  15.5 0.75 0  15.75 0.75 0  16 0.75 0  16.25 0.75 0  16.5 0.75 0  16.75 0.75 0  17 0.75 0  17.25 0.75 0  17.5 0.75 0  17.75 0.75 0  18 0.75 0  18.25 0.75 0  18.5 0.75 0  18.75 0.75 0  19 0.75 0  19.25 0.75 0  19.5 0.75 0  19.75 0.75 0  20 0.75 0  20.25 0.75 0  20.5 0.75 0  20.75 0.75 0  21 0.75 0  21.25 0.75 0  21.5 0.75 0  21.75 0.75 0  22 0.75 0  22.25 0.75 0  22.5 0.75 0  22.75 0.75 0  23 0.75 0  23.25 0.75 0  23.5 0.75 0  23.75 0.75 0  24 0.75 0  24.25 0.75 0  24.5 0.75 0  24.75 0.75 0  25 0.75 0  0 1 0  0.25 1 0  0.5 1 0  0.75 1 0  1 1 0  1.25 1 0  1.5 1 0  1.75 1 0  2 1 0  2.25 1 0  2.5 1 0  2.75 1 0  3 1 0  3.25 1 0  3.5 1 0  3.75 1 0  4 1 0  4.25 1 0  4.5 1 0  4.75 1 0  5 1 0  5.25 1 0  5.5 1 0  5.75 1 0  6 1 0  6.25 1 0  6.5 1 0  6.75 1 0  7 1 0  7.25 1 0  7.5 1 0  7.75 1 0  8 1 0  8.25 1 0  8.5 1 0  8.75 1 0  9 1 0  9.25 1 0  9.5 1 0  9.75 1 0  10 1 0  10.25 1 0  10.5 1 0  10.75 1 0  11 1 0  11.25 1 0  11.5 1 0  11.75 1 0  12 1 0  12.25 1 0  12.5 1 0  12.75 1 0  13 1 0  13.25 1 0  13.5 1 0  13.75 1 0  14 1 0  14.25 1 0  14.5 1 0  14.75 1 0  15 1 0  15.25 1 0  15.5 1 0  15.75 1 0  16 1 0  16.25 1 0  16.5 1 0  16.75 1 0  17 1 0  17.25 1 0  17.5 1 0  17.75 1 0  18 1 0  18.25 1 0  18.5 1 0  18.75 1 0  19 1 0  19.25 1 0  19.5 1 0  19.75 1 0  20 1 0  20.25 1 0  20.5 1 0  20.75 1 0  21 1 0  21.25 1 0  21.5 1 0  21.75 1 0  22 1 0  22.25 1 0  22.5 1 0  22.75 1 0  23 1 0  23.25 1 0  23.5 1 0  23.75 1 0  24 1 0  24.25 1 0  24.5 1 0  24.75 1 0  25 1 0  0 1.25 0  0.25 1.25 0  0.5 1.25 0  0.75 1.25 0  1 1.25 0  1.25 1.25 0  1.5 1.25 0  1.75 1.25 0  2 1.25 0  2.25 1.25 0  2.5 1.25 0  2.75 1.25 0  3 1.25 0  3.25 1.25 0  3.5 1.25 0  3.75 1.25 0  4 1.25 0  4.25 1.25 0  4.5 1.25 0  4.75 1.25 0  5 1.25 0  5.25 1.25 0  5.5 1.25 0  5.75 1.25 0  6 1.25 0  6.25 1.25 0  6.5 1.25 0  6.75 1.25 0  7 1.25 0  7.25 1.25 0  7.5 1.25 0  7.75 1.25 0  8 1.25 0  8.25 1.25 0  8.5 1.25 0  8.75 1.25 0  9 1.25 0  9.25 1.25 0  9.5 1.25 0  9.75 1.25 0  10 1.25 0  10.25 1.25 0  10.5 1.25 0  10.75 1.25 0  11 1.25 0  11.25 1.25 0  11.5 1.25 0  11.75 1.25 0  12 1.25 0  12.25 1.25 0  12.5 1.25 0  12.75 1.25 0  13 1.25 0  13.25 1.25 0  13.5 1.25 0  13.75 1.25 0  14 1.25 0  14.25 1.25 0  14.5 1.25 0  14.75 1.25 0  15 1.25 0  15.25 1.25 0  15.5 1.25 0  15.75 1.25 0  16 1.25 0  16.25 1.25 0  16.5 1.25 0  16.75 1.25 0  17 1.25 0  17.25 1.25 0  17.5 1.25 0  17.75 1.25 0  18 1.25 0  18.25 1.25 0  18.5 1.25 0  18.75 1.25 0  19 1.25 0  19.25 1.25 0  19.5 1.25 0  19.75 1.25 0  20 1.25 0  20.25 1.25 0  20.5 1.25 0  20.75 1.25 0  21 1.25 0  21.25 1.25 0  21.5 1.25 0  21.75 1.25 0  22 1.25 0  22.25 1.25 0  22.5 1.25 0  22.75 1.25 0  23 1.25 0  23.25 1.25 0  23.5 1.25 0  23.75 1.25 0  24 1.25 0  24.25 1.25 0  24.5 1.25 0  24.75 1.25 0  25 1.25 0  0 1.5 0  0.25 1.5 0  0.5 1.5 0  0.75 1.5 0  1 1.5 0  1.25 1.5 0  1.5 1.5 0  1.75 1.5 0  2 1.5 0  2.25 1.5 0  2.5 1.5 0  2.75 1.5 0  3 1.5 0  3.25 1.5 0  3.5 1.5 0  3.75 1.5 0  4 1.5 0  4.25 1.5 0  4.5 1.5 0  4.75 1.5 0  5 1.5 0  5.25 1.5 0  5.5 1.5 0  5.75 1.5 0  6 1.5 0  6.25 1.5 0  6.5 1.5 0  6.75 1.5 0  7 1.5 0  7.25 1.5 0  7.5 1.5 0  7.75 1.5 0  8 1.5 0  8.25 1.5 0  8.5 1.5 0  8.75 1.5 0  9 1.5 0  9.25 1.5 0  9.5 1.5 0  9.75 1.5 0  10 1.5 0  10.25 1.5 0  10.5 1.5 0  10.75 1.5 0  11 1.5 0  11.25 1.5 0  11.5 1.5 0  11.75 1.5 0  12 1.5 0  12.25 1.5 0  12.5 1.5 0  12.75 1.5 0  13 1.5 0  13.25 1.5 0  13.5 1.5 0  13.75 1.5 0  14 1.5 0  14.25 1.5 0  14.5 1.5 0  14.75 1.5 0  15 1.5 0  15.25 1.5 0  15.5 1.5 0  15.75 1.5 0  16 1.5 0  16.25 1.5 0  16.5 1.5 0  16.75 1.5 0  17 1.5 0  17.25 1.5 0  17.5 1.5 0  17.75 1.5 0  18 1.5 0  18.25 1.5 0  18.5 1.5 0  18.75 1.5 0  19 1.5 0  19.25 1.5 0  19.5 1.5 0  19.75 1.5 0  20 1.5 0  20.25 1.5 0  20.5 1.5 0  20.75 1.5 0  21 1.5 0  21.25 1.5 0  21.5 1.5 0  21.75 1.5 0  22 1.5 0  22.25 1.5 0  22.5 1.5 0  22.75 1.5 0  23 1.5 0  23.25 1.5 0  23.5 1.5 0  23.75 1.5 0  24 1.5 0  24.25 1.5 0  24.5 1.5 0  24.75 1.5 0  25 1.5 0  0 1.75 0  0.25 1.75 0  0.5 1.75 0  0.75 1.75 0  1 1.75 0  1.25 1.75 0  1.5 1.75 0  1.75 1.75 0  2 1.75 0  2.25 1.75 0  2.5 1.75 0  2.75 1.75 0  3 1.75 0  3.25 1.75 0  3.5 1.75 0  3.75 1.75 0  4 1.75 0  4.25 1.75 0  4.5 1.75 0  4.75 1.75 0  5 1.75 0  5.25 1.75 0  5.5 1.75 0  5.75 1.75 0  6 1.75 0  6.25 1.75 0  6.5 1.75 0  6.75 1.75 0  7 1.75 0  7.25 1.75 0  7.5 1.75 0  7.75 1.75 0  8 1.75 0  8.25 1.75 0  8.5 1.75 0  8.75 1.75 0  9 1.75 0  9.25 1.75 0  9.5 1.75 0  9.75 1.75 0  10 1.75 0  10.25 1.75 0  10.5 1.75 0  10.75 1.75 0  11 1.75 0  11.25 1.75 0  11.5 1.75 0  11.75 1.75 0  12 1.75 0  12.25 1.75 0  12.5 1.75 0  12.75 1.75 0  13 1.75 0  13.25 1.75 0  13.5 1.75 0  13.75 1.75 0  14 1.75 0  14.25 1.75 0  14.5 1.75 0  14.75 1.75 0  15 1.75 0  15.25 1.75 0  15.5 1.75 0  15.75 1.75 0  16 1.75 0  16.25 1.75 0  16.5 1.75 0  16.75 1.75 0  17 1.75 0  17.25 1.75 0  17.5 1.75 0  17.75 1.75 0  18 1.75 0  18.25 1.75 0  18.5 1.75 0  18.75 1.75 0  19 1.75 0  19.25 1.75 0  19.5 1.75 0  19.75 1.75 0  20 1.75 0  20.25 1.75 0  20.5 1.75 0  20.75 1.75 0  21 1.75 0  21.25 1.75 0  21.5 1.75 0  21.75 1.75 0  22 1.75 0  22.25 1.75 0  22.5 1.75 0  22.75 1.75 0  23 1.75 0  23.25 1.75 0  23.5 1.75 0  23.75 1.75 0  24 1.75 0  24.25 1.75 0  24.5 1.75 0  24.75 1.75 0  25 1.75 0  0 2 0  0.25 2 0  0.5 2 0  0.75 2 0  1 2 0  1.25 2 0  1.5 2 0  1.75 2 0  2 2 0  2.25 2 0  2.5 2 0  2.75 2 0  3 2 0  3.25 2 0  3.5 2 0  3.75 2 0  4 2 0  4.25 2 0  4.5 2 0  4.75 2 0  5 2 0  5.25 2 0  5.5 2 0  5.75 2 0  6 2 0  6.25 2 0  6.5 2 0  6.75 2 0  7 2 0  7.25 2 0  7.5 2 0  7.75 2 0  8 2 0  8.25 2 0  8.5 2 0  8.75 2 0  9 2 0  9.25 2 0  9.5 2 0  9.75 2 0  10 2 0  10.25 2 0  10.5 2 0  10.75 2 0  11 2 0  11.25 2 0 
[...]
<PointData  Scalars="f_26"> 
<DataArray  type="Float64"  Name="f_26"  format="ascii">9.9995486872829920e-01  9.9995152635098239e-01  9.9994227735963193e-01  9.9992575437575537e-01  9.9989979117505590e-01  9.9986105069293796e-01  9.9980457468282435e-01  9.9972314328075607e-01  9.9960635050983948e-01  9.9943927508981090e-01  9.9920057725565292e-01  9.9885978133194708e-01  9.9837340377233130e-01  9.9767944698760946e-01  9.9668958739234514e-01  9.9527812656502701e-01  9.9326643313348006e-01  9.9040117479059797e-01  9.8632414669941160e-01  9.8053103219022231e-01  9.7231621370756727e-01  9.6070129691600237e-01  9.4434733657215331e-01  9.2145668184765095e-01  8.8968270570442298e-01  8.4608770596567828e-01  7.8722191118933882e-01  7.0943123422788246e-01  6.0950826601904950e-01  4.8572253579641728e-01  3.3904749763770997e-01  1.7408695619318804e-01  -9.6670006552382456e-04  -1.7571323511207773e-01  -3.3987850197583086e-01  -4.8556792697842666e-01  -6.0847813023123065e-01  -7.0781330087279348e-01  -7.8533735956813855e-01  -8.4419670739797126e-01  -8.8795193812067941e-01  -9.1996773970720325e-01  -9.4312117261180239e-01  -9.5972297576740051e-01  -9.7155365393037274e-01  -9.7994696194881403e-01  -9.8588270039693460e-01  -9.9007093008341951e-01  -9.9302135460814867e-01  -9.9509741448959177e-01  -9.9655703971859766e-01  -9.9758267286464297e-01  -9.9830305895249905e-01  -9.9880889927488314e-01  -9.9916401813498179e-01  -9.9941328978631627e-01  -9.9958824628910814e-01  -9.9971103521525717e-01  -9.9979720804087036e-01  -9.9985768235207717e-01  -9.9990012148990626e-01  -9.9992990400895865e-01  -9.9995080461336316e-01  -9.9996547229330768e-01  -9.9997576598882953e-01  -9.9998299019848536e-01  -9.9998806033987275e-01  -9.9999161879834630e-01  -9.9999411636501367e-01  -9.9999586938455010e-01  -9.9999709985697305e-01  -9.9999796357759041e-01  -9.9999856988312785e-01  -9.9999899550786842e-01  -9.9999929430678480e-01  -9.9999950407854399e-01  -9.9999965135348590e-01  -9.9999975475360503e-01  -9.9999982735048454e-01  -9.9999987832006276e-01  -9.9999991410395817e-01  -9.9999993922451957e-01  -9.9999995685686860e-01  -9.9999996923040113e-01  -9.9999997791060080e-01  -9.9999998399685197e-01  -9.9999998826129455e-01  -9.9999999124629713e-01  -9.9999999333288381e-01  -9.9999999478877122e-01  -9.9999999580209087e-01  -9.9999999650506322e-01  -9.9999999699061304e-01  -9.9999999732402878e-01  -9.9999999755113644e-01  -9.9999999770401982e-01  -9.9999999780500481e-01  -9.9999999786939375e-01  -9.9999999790723548e-01  -9.9999999792410410e-01  -9.9999999791986238e-01  9.9995439597853819e-01  9.9995136777634352e-01  9.9994215162493549e-01  9.9992558590509273e-01  9.9989954372983925e-01  9.9986068910706971e-01  9.9980405269997197e-01  9.9972239590897527e-01  9.9960528560438444e-01  9.9943776218723890e-01  9.9919843220578908e-01  9.9885674512998734e-01  9.9836911368223691e-01  9.9767339778844577e-01  9.9668108065923211e-01  9.9526620688328127e-01  9.9324981317088124e-01  9.9037815838112475e-01  9.8629257442130724e-01  9.8048830384742669e-01  9.7225949614532603e-01  9.6062811414895022e-01  9.4425686394724295e-01  9.2135219239236921e-01  8.8957561654819728e-01  8.4600324254133341e-01  7.8720505836920740e-01  7.0954904772143013e-01  6.0984169593161142e-01  4.8634129976863211e-01  3.3997057625395050e-01  1.7524853275732521e-01  2.8413335462291220e-04  -1.7455648498510309e-01  -3.3896213214720045e-01  -4.8495426836698030e-01  -6.0814641500091349e-01  -7.0769405522081552e-01  -7.8535089826759785e-01  -8.4427723034320012e-01  -8.8805525785192085e-01  -9.2006897944916755e-01  -9.4320898510689499e-01  -9.5979403218124804e-01  -9.7160868716570215e-01  -9.7998835953072894e-01  -9.8591322206634713e-01  -9.9009311805430067e-01  -9.9303732286939705e-01  -9.9510882331522355e-01  -9.9656514778303806e-01  -9.9758841254438591e-01  -9.9830711012701778e-01  -9.9881175229127450e-01  -9.9916602389388942e-01  -9.9941469798528104e-01  -9.9958923387685017e-01  -9.9971172720142065e-01  -9.9979769253628714e-01  -9.9985802134918211e-01  -9.9990035854391357e-01  -9.9993006968705955e-01  -9.9995092034807864e-01  -9.9996555310075197e-01  -9.9997582238269034e-01  -9.9998302953574014e-01  -9.9998808776586789e-01  -9.9999163790989076e-01  -9.9999412967525991e-01  -9.9999587864869410e-01  -9.9999710630031102e-01  -9.9999796805511976e-01  -9.9999857299118966e-01  -9.9999899766220601e-01  -9.9999929579709812e-01  -9.9999950510660252e-01  -9.9999965205974262e-01  -9.9999975523577589e-01  -9.9999982767651152e-01  -9.9999987853715611e-01  -9.9999991424490087e-01  -9.9999993931206121e-01  -9.9999995690678611e-01  -9.9999996925363066e-01  -9.9999997791472128e-01  -9.9999998398711765e-01  -9.9999998824135239e-01  -9.9999999121868621e-01  -9.9999999329938161e-01  -9.9999999475063395e-01  -9.9999999576022047e-01  -9.9999999646012228e-01  -9.9999999694310460e-01  -9.9999999727435096e-01  -9.9999999749962110e-01  -9.9999999765096081e-01  -9.9999999775068615e-01  -9.9999999781414228e-01  -9.9999999785159643e-01  -9.9999999786958771e-01  -9.9999999787244387e-01  9.9995424288221868e-01  9.9995128849757009e-01  9.9994210559666818e-01  9.9992554181847393e-01  9.9989948465110412e-01  9.9986060434752666e-01  9.9980393295931458e-01  9.9972223101996971e-01  9.9960506362509416e-01  9.9943746938991562e-01  9.9919805413170815e-01  9.9885626944916983e-01  9.9836853637250522e-01  9.9767273542233081e-01  9.9668039378164786e-01  9.9526564325294775e-01  9.9324968610984665e-01  9.9037908630124694e-01  9.8629572512984454e-01  9.8049581422309140e-01  9.7227517588926371e-01  9.6065858780662372e-01  9.4431333897870184e-01  9.2145300866890345e-01  8.8974951877902253e-01  8.4629273382261627e-01  7.8766805860164646e-01  7.1025552504989820e-01  6.1086099966566898e-01  4.8771794273572905e-01  3.4169350802797793e-01  1.7722947905107428e-01  2.3644637697091716e-03  -1.7256429033260479e-01  -3.3721731578483943e-01  -4.8354667432912612e-01  -6.0708976939477832e-01  -7.0694721281041628e-01  -7.8484780254950703e-01  -8.4395047622921049e-01  -8.8784848376799252e-01  -9.1994031054159930e-01  -9.4312962746486140e-01  -9.5974519561085336e-01  -9.7157853268875838e-01  -9.7996959441606935e-01  -9.8590141241060858e-01  -9.9008558330674867e-01  -9.9303244208600927e-01  -9.9510561140326559e-01  -9.9656300080153837e-01  -9.9758695586849089e-01  -9.9830610813338083e-01  -9.9881105450329966e-01  -9.9916553266648733e-01  -9.9941434893329240e-01  -9.9958898388206163e-01  -9.9971154696330056e-01  -9.9979756187576008e-01  -9.9985792620139846e-01  -9.9990028900175498e-01  -9.9993001870815967e-01  -9.9995088288738665e-01  -9.9996552552031981e-01  -9.9997580204485614e-01  -9.9998301451944005e-01  -9.9998807666676415e-01  -9.9999162969828592e-01  -9.9999412359431128e-01  -9.9999587414102087e-01  -9.9999710295478328e-01  -9.9999796556810527e-01  -9.9999857113822299e-01  -9.9999899627721511e-01  -9.9999929475713467e-01  -9.9999950432059548e-01  -9.9999965146020364e-01  -9.9999975477267344e-01  -9.9999982731274362e-01  -9.9999987824520220e-01  -9.9999991400434540e-01  -9.9999993910776075e-01  -9.9999995672751341e-01  -9.9999996909107147e-01  -9.9999997776273242e-01  -9.9999998384117772e-01  -9.9999998809815649e-01  -9.9999999107584558e-01  -9.9999999315520172e-01  -9.9999999460394973e-01  -9.9999999561027453e-01  -9.9999999630647396e-01  -9.9999999678556184e-01  -9.9999999711291998e-01  -9.9999999733446865e-01  -9.9999999748238944e-01  -9.9999999757912350e-01  -9.9999999764015646e-01  -9.9999999767595726e-01  -9.9999999769336545e-01  -9.9999999769669234e-01  9.9995424725261361e-01  9.9995131728749120e-01  9.9994216597568564e-01  9.9992563566475978e-01  9.9989962025272450e-01  9.9986079936349292e-01  9.9980421670968478e-01  9.9972264862327465e-01  9.9960568304310593e-01  9.9943839256195621e-01  9.9919943407733047e-01  9.9885833632916243e-01  9.9837163717342370e-01  9.9767739447968018e-01  9.9668740525452082e-01  9.9527621258920085e-01  9.9326564641912407e-01  9.9040322849518891e-01  9.8633229867573702e-01  9.8055127827340915e-01  9.7235930482928790e-01  9.6078604892763630e-01  9.4450583363494434e-01  9.2174194205145699e-01  8.9017883670999287e-01  8.4692091378189105e-01  7.8856722201251250e-01  7.1150454841549815e-01  6.1252938369025089e-01  4.8983990040417291e-01  3.4423857175161499e-01  1.8008441693306976e-01  5.3431934735857743e-03  -1.6967859465806018e-01  -3.3461518961615488e-01  -4.8134893190742406e-01  -6.0533560905019512e-01  -7.0561048222515055e-01  -7.8386523899695815e-01  -8.4324722108596106e-01  -8.8735438928073984e-01  -9.1959730631708636e-01  -9.4289315384736883e-01  -9.5958268424220639e-01  -9.7146691255318451e-01  -9.7989283817908879e-01  -9.8584851196391243e-01  -9.9004902129388539e-01  -9.9300709484336314e-01  -9.9508798470059434e-01  -9.9655070650993838e-01  -9.9757835684712748e-01  -9.9830007816841582e-01  -9.9880681607221589e-01  -9.9916254709097230e-01  -9.9941224176721988e-01  -9.9958749403709857e-01  -9.9971049187738770e-01  -9.9979681356758032e-01  -9.9985739474386282e-01  -9.9989991107398946e-01  -9.9992974963864822e-01  -9.9995069110665313e-01  -9.9996538868275464e-01  -9.9997570431067440e-01  -9.9998294464542481e-01  -9.9998802666239650e-01  -9.9999159387808223e-01  -9.9999409790842997e-01  -9.9999585570169669e-01  -9.9999708970082624e-01  -9.9999795602689867e-01  -9.9999856425668110e-01  -9.9999899130158187e-01  -9.9999929114742192e-01  -9.9999950168961538e-01  -9.9999964953008602e-01  -9.9999975334382452e-01  -9.9999982624166939e-01  -9.9999987742865037e-01  -9.9999991336795868e-01  -9.9999993859795189e-01  -9.9999995630564309e-01  -9.9999996872927421e-01  -9.9999997744092262e-01  -9.9999998354489994e-01  -9.9999998781704191e-01  -9.9999999080250235e-01  -9.9999999288441666e-01  -9.9999999433211373e-01  -9.9999999533496753e-01  -9.9999999602616430e-01  -9.9999999649938875e-01  -9.9999999682053420e-01  -9.9999999703591602e-01  -9.9999999717802601e-01  -9.9999999726955568e-01  -9.9999999732619804e-01  -9.9999999735859213e-01  -9.9999999737365752e-01  -9.9999999737546752e-01  9.9995436459965403e-01  9.9995145130460428e-01  9.9994234013366168e-01  9.9992587360564911e-01  9.9989995376632401e-01  9.9986127483341891e-01  9.9980490232770425e-01  9.9972364444367756e-01  9.9960713580307048e-01  9.9944051765873909e-01  9.9920254812201947e-01  9.9886290533999500e-01  9.9837834793426905e-01  9.9768726022200249e-01  9.9670192212693143e-01  9.9529759101586657e-01  9.9329715217881831e-01  9.9044968283233714e-01  9.8640080495504323e-01  9.8065226255502669e-01  9.7250797240269626e-01  9.6100435143745622e-01  9.4482497679051203e-01  9.2220527842732303e-01  8.9084458623736029e-01  8.4786343700684097e-01  7.8987454780296718e-01  7.1326890488537409e-01  6.1482769091638156e-01  4.9270434729075557e-01  3.4762461767184621e-01  1.8385208375380718e-01  9.2690310179522530e-03  -1.6585463713007084e-01  -3.3112606297885577e-01  -4.7835022783080056e-01  -6.0288884173297497e-01  -7.0369796653187833e-01  -7.8242023849524134e-01  -8.4218326459363002e-01  -8.8658564075516899e-01  -9.1904917568963274e-01  -9.4250579393058509e-01  -9.5931047864989250e-01  -9.7127624949780000e-01  -9.7975949974240761e-01  -9.8575530145199675e-01  -9.8998383955013491e-01  -9.9296147574650284e-01  -9.9505602158201534e-01  -9.9652828333997401e-01  -9.9756260558316212e-01  -9.9828899905162194e-01  -9.9879901323685161e-01  -9.9915704490060309e-01  -9.9940835731915967e-01  -9.9958474862619517e-01  -9.9970854945222365e-01  -9.9979543789061354e-01  -9.9985641952420290e-01  -9.9989921911023572e-01  -9.9992925822984524e-01  -9.9995034183142151e-01  -9.9996514022785910e-01  -9.9997552743203011e-01  -9.9998281862271288e-01  -9.9998793680143683e-01  -9.9999152974925642e-01  -9.9999405210287029e-01  -9.9999582295214939e-01  -9.9999706625966112e-01  -9.9999793922564328e-01  -9.9999855219382749e-01  -9.9999898262112508e-01  -9.9999928488163414e-01  -9.9999949714733949e-01  -9.9999964621730941e-01  -9.9999975090716708e-01  -9.9999982442814594e-01  -9.9999987605700325e-01  -9.9999991230822027e-01  -9.9999993775686613e-01  -9.9999995561626043e-01  -9.9999996814352121e-01  -9.9999997692429321e-01  -9.9999998307266058e-01  -9.9999998737151707e-01  -9.9999999037113230e-01  -9.9999999245836602e-01  -9.9999999390527328e-01  -9.9999999490323732e-01  -9.9999999558693742e-01  -9.9999999605117751e-01  -9.9999999636269798e-01  -9.9999999656846239e-01  -9.9999999670146222e-01  -9.9999999678477569e-01  -9.9999999683439245e-01  -9.9999999686116059e-01  -9.9999999687209906e-01  -9.9999999687121710e-01  9.9995458010381666e-01  9.9995168554237523e-01  9.9994262859072658e-01  9.9992625702439808e-01  9.9990048538214549e-01  9.9986202894913878e-01  9.9980598536906484e-01  9.9972521036849360e-01  9.9960940831068978e-01  9.9944382254740083e-01  9.9920736057759896e-01  9.9886991910533396e-01  9.9838857648426393e-01  9.9770218465699723e-01  9.9672370703041346e-01  9.9532939864981707e-01  9.9334359776564207e-01  9.9051748964743991e-01  9.8649973683758463e-01  9.8079642992035765e-01  9.7271761687580149e-01  9.6130819359373265e-01  9.4526312135418189e-01  9.2283244260695907e-01  8.9173294986783125e-01  8.4910361039786286e-01  7.9157204217653565e-01  7.1553249883432124e-01  6.1774641355115711e-01  4.9631339354561116e-01  3.5186857147288714e-01  1.8856335476011571e-01  1.4181254232459107e-02  -1.6105299208648288e-01  -3.2671777616227304e-01  -4.7452947676346119e-01  -5.9973922134231006e-01  -7.0120745407254392e-01  -7.8051517288648087e-01  -8.4076275141550960e-01  -8.8554641288008029e-01  -9.1829931625508676e-01  -9.4196996908882413e-01  -9.5893013093097024e-01  -9.7100743839995718e-01  -9.7957002832579243e-01  -9.8562195386828089e-01  -9.8989005486043813e-01  -9.9289552324956631e-01  -9.9500962901160450e-01  -9.9649563276695485e-01  -9.9753961102869693e-01  -9.9827279253306189e-01  -9.9878758169166781e-01  -9.9914897481319909e-01  -9.9940265555221053e-01  -9.9958071687464889e-01  -9.9970569630795225e-01  -9.9979341724177628e-01  -9.9985498738115963e-01  -9.9989820332433876e-01  -9.9992853723698738e-01  -9.9994982971706448e-01  -9.9996477622376023e-01  -9.9997526852272267e-01  -9.9998263433623857e-01  -9.9998780553576294e-01  -9.9999143617942365e-01  -9.9999398534940764e-01  -9.9999577528621075e-01  -9.9999703218689617e-01  -9.9999791483754552e-01  -9.9999853470813393e-01  -9.9999897005594152e-01  -9.9999927582422132e-01  -9.9999949058995530e-01  -9.9999964144058628e-01  -9.9999974739720821e-01  -9.9999982181755642e-01  -9.9999987408292301e-01  -9.9999991078243922e-01  -9.9999993654453267e-01  -9.9999995462070512e-01  -9.9999996729543339e-01  -9.9999997617399905e-01  -9.9999998238461130e-01  -9.9999998672035284e-01  -9.9999998973886917e-01  -9.9999999183238419e-01  -9.9999999327687739e-01  -9.9999999426662256e-01  -9.9999999493844649e-01  -9.9999999538876339e-01  -9.9999999568553311e-01  -9.9999999587665045e-01  -9.9999999599582357e-01  -9.9999999606668155e-01  -9.9999999610563084e-01  -9.9999999612381829e-01  -9.9999999612844648e-01  -9.9999999612359558e-01  9.9995488734903137e-01  9.9995201609294737e-01  9.9994302965996151e-01  9.9992678473930308e-01  9.9990121304072344e-01  9.9986305774903761e-01  9.9980745891725520e-01  9.9972733505524058e-01  9.9961248251191648e-01  9.9944827885675680e-01  9.9921382708992990e-01  9.9887930843281481e-01  9.9840221502265070e-01  9.9772200008375900e-01  9.9675249968436352e-01  9.9537123297725560e-01  9.9340436403211474e-01  9.9060570379057589e-01  9.8662766657692624e-01  9.8098165389037728e-01  9.7298512999321463e-01  9.6169314306718734e-01  9.4581414911392558e-01  9.2361534497192954e-01  8.9283383382125314e-01  8.5062982021539524e-01  7.9364787977355833e-01  7.1828563888532015e-01  6.2128125864920036e-01  5.0067163432658590e-01  3.5698635067499085e-01  1.9424545776071542e-01  2.0115332401621399e-02  -1.5523524032390451e-01  -3.2135450297069001e-01  -4.6985732127480434e-01  -5.9586526175662125e-01  -6.9812467916660437e-01  -7.7814129593975701e-01  -8.3898060703391697e-01  -8.8423380900827742e-01  -9.1734600356380691e-01  -9.4128454014714313e-01  -9.5844078655678822e-01  -9.7065977518656676e-01  -9.7932381948119474e-01  -9.8544794851688833e-01  -9.8976722521979288e-01  -9.9280886982714678e-01  -9.9494850773309063e-01  -9.9645251571009397e-01  -9.9750918528636601e-01  -9.9825131296922764e-01  -9.9877240983769788e-01  -9.9913825212779261e-01  -9.9939507268459027e-01  -9.9957535106449147e-01  -9.9970189693579492e-01  -9.9979072531463709e-01  -9.9985307889725061e-01  -9.9989684942724899e-01  -9.9992757617135908e-01  -9.9994914708035121e-01  -9.9996429105174200e-01  -9.9997492347924000e-01  -9.9998238879202050e-01  -9.9998763068226759e-01  -9.9999131157704602e-01  -9.9999389648737835e-01  -9.9999571185654490e-01  -9.9999698686266003e-01  -9.9999788240754606e-01  -9.9999851146367436e-01  -9.9999895335595335e-01  -9.9999926378670623e-01  -9.9999948187292276e-01  -9.9999963508644218e-01  -9.9999974272215497e-01  -9.9999981833294294e-01  -9.9999987143928637e-01  -9.9999990872967148e-01  -9.9999993490351358e-01  -9.9999995326309044e-01  -9.9999996612924902e-01  -9.9999997513336836e-01  -9.9999998142242785e-01  -9.9999998580305027e-01  -9.9999998884268737e-01  -9.9999999094070058e-01  -9.9999999237829718e-01  -9.9999999335361023e-01  -9.9999999400634065e-01  -9.9999999443506538e-01  -9.9999999470938827e-01  -9.9999999487846547e-01  -9.9999999497697944e-01  -9.9999999502931103e-01  -9.9999999505244042e-01  -9.9999999505793691e-01  -9.9999999505329096e-01  -9.9999999504275217e-01  9.9995528254412502e-01  9.9995243981690107e-01  9.9994354086928627e-01  9.9992745417907769e-01  9.9990213312666598e-01  9.9986435556713171e-01  9.9980931402878448e-01  9.9973000456391259e-01  9.9961633690197449e-01  9.9945385361027828e-01  9.9922189725863464e-01  9.9889099646187285e-01  9.9841914658319941e-01  9.9774652896899496e-01  9.9678803158842111e-01  9.9542268991411975e-01  9.9347884688720789e-01  9.9071343014769941e-01  9.8678328318937547e-01  9.8120604321363725e-01  9.7330783614405714e-01  9.6215550872677325e-01  9.4647313162587210e-01  9.2454768181305547e-01  8.9413963079938164e-01  8.5243361607559831e-01  7.9609382187252919e-01  7.2152209984267657e-01  6.2543052357158990e-01  5.0578470831106326e-01  3.6299324024889063e-01  2.0092406945049529e-01  2.7105787906704235e-02  -1.4836168571086825e-01  -3.1499601598204574e-01  -4.6429708999412211e-01  -5.9123633580093726e-01  -6.9442577943262596e-01  -7.7528094695907634e-01  -8.3682419348556070e-01  -8.8263893933570337e-01  -9.1618300305054901e-01  -9.4044510160709582e-01  -9.5783928996480427e-01  -9.7023096504434780e-01  -9.7901918177676539e-01  -9.8523202624145301e-01  -9.8961440756182695e-01  -9.9270080724917231e-01  -9.9487212579725870e-01  -9.9639853324623662e-01  -9.9747102996036585e-01  -9.9822433784300346e-01  -9.9875333227539353e-01  -9.9912475428888214e-01  -9.9938551817617483e-01  -9.9956858448903518e-01  -9.9969710230834485e-01  -9.9978732615316745e-01  -9.9985066775253506e-01  -9.9989513818413267e-01  -9.9992636099562004e-01  -9.9994828368903854e-01  -9.9996367726035629e-01  -9.9997448687918922e-01  -9.9998207804613592e-01  -9.9998740937294162e-01  -9.9999115385613557e-01  -9.9999378399851857e-01  -9.9999563155651316e-01  -9.9999692947832364e-01  -9.9999784134238223e-01  -9.9999848202246189e-01  -9.9999893219476499e-01  -9.9999924852252520e-01  -9.9999947080641416e-01  -9.9999962700497980e-01  -9.9999973675980158e-01  -9.9999981387086823e-01  -9.9999986803491103e-01  -9.9999990606622957e-01  -9.9999993275413368e-01  -9.9999995146520659e-01  -9.9999996456636442e-01  -9.9999997372205485e-01  -9.9999998010305391e-01  -9.9999998453316652e-01  -9.9999998759230468e-01  -9.9999998968891735e-01  -9.9999999111088622e-01  -9.9999999206128909e-01  -9.9999999268352757e-01  -9.9999999307897836e-01  -9.9999999331938827e-01  -9.9999999345557000e-01  -9.9999999352349456e-01  -9.9999999354854696e-01  -9.9999999354848124e-01  -9.9999999353544788e-01  -9.9999999351735014e-01  -9.