<?xml version="1.0"?>
<VTKFile type="UnstructuredGrid"  version="0.1"  >
<UnstructuredGrid>
<Piece  NumberOfPoints="10201" NumberOfCells="20000">
<Points>
<DataArray  type="Float64"  NumberOfComponents="3"  format="ascii">0 0 0  0.25 0 0  0.5 0 0  0.75 0 0  1 0 0  1.25 0 0  1.5 0 0  1.75 0 0  2 0 0  2.25 0 0  2.5 0 0  2.75 0 0  3 0 0  3.25 0 0  3.5 0 0  3.75 0 0  4 0 0  4.25 0 0  4.5 0 0  4.75 0 0  5 0 0  5.25 0 0  5.5 0 0  5.75 0 0  6 0 0  6.25 0 0  6.5 0 0  6.75 0 0  7 0 0  7.25 0 0  7.5 0 0  7.75 0 0  8 0 0  8.25 0 0  8.5 0 0  8.75 0 0  9 0 0  9.25 0 0  9.5 0 0  9.75 0 0  10 0 0  10.25 0 0  10.5 0 0  10.75 0 0  11 0 0  11.25 0 0  11.5 0 0  11.75 0 0  12 0 0  12.25 0 0  12.5 0 0  12.75 0 0  13 0 0  13.25 0 0  13.5 0 0  13.75 0 0  14 0 0  14.25 0 0  14.5 0 0  14.75 0 0  15 0 0  15.25 0 0  15.5 0 0  15.75 0 0  16 0 0  16.25 0 0  16.5 0 0  16.75 0 0  17 0 0  17.25 0 0  17.5 0 0  17.75 0 0  18 0 0  18.25 0 0  18.5 0 0  18.75 0 0  19 0 0  19.25 0 0  19.5 0 0  19.75 0 0  20 0 0  20.25 0 0  20.5 0 0  20.75 0 0  21 0 0  21.25 0 0  21.5 0 0  21.75 0 0  22 0 0  22.25 0 0  22.5 0 0  22.75 0 0  23 0 0  23.25 0 0  23.5 0 0  23.75 0 0  24 0 0  24.25 0 0  24.5 0 0  24.75 0 0  25 0 0  0 0.25 0  0.25 0.25 0  0.5 0.25 0  0.75 0.25 0  1 0.25 0  1.25 0.25 0  1.5 0.25 0  1.75 0.25 0  2 0.25 0  2.25 0.25 0  2.5 0.25 0  2.75 0.25 0  3 0.25 0  3.25 0.25 0  3.5 0.25 0  3.75 0.25 0  4 0.25 0  4.25 0.25 0  4.5 0.25 0  4.75 0.25 0  5 0.25 0  5.25 0.25 0  5.5 0.25 0  5.75 0.25 0  6 0.25 0  6.25 0.25 0  6.5 0.25 0  6.75 0.25 0  7 0.25 0  7.25 0.25 0  7.5 0.25 0  7.75 0.25 0  8 0.25 0  8.25 0.25 0  8.5 0.25 0  8.75 0.25 0  9 0.25 0  9.25 0.25 0  9.5 0.25 0  9.75 0.25 0  10 0.25 0  10.25 0.25 0  10.5 0.25 0  10.75 0.25 0  11 0.25 0  11.25 0.25 0  11.5 0.25 0  11.75 0.25 0  12 0.25 0  12.25 0.25 0  12.5 0.25 0  12.75 0.25 0  13 0.25 0  13.25 0.25 0  13.5 0.25 0  13.75 0.25 0  14 0.25 0  14.25 0.25 0  14.5 0.25 0  14.75 0.25 0  15 0.25 0  15.25 0.25 0  15.5 0.25 0  15.75 0.25 0  16 0.25 0  16.25 0.25 0  16.5 0.25 0  16.75 0.25 0  17 0.25 0  17.25 0.25 0  17.5 0.25 0  17.75 0.25 0  18 0.25 0  18.25 0.25 0  18.5 0.25 0  18.75 0.25 0  19 0.25 0  19.25 0.25 0  19.5 0.25 0  19.75 0.25 0  20 0.25 0  20.25 0.25 0  20.5 0.25 0  20.75 0.25 0  21 0.25 0  21.25 0.25 0  21.5 0.25 0  21.75 0.25 0  22 0.25 0  22.25 0.25 0  22.5 0.25 0  22.75 0.25 0  23 0.25 0  23.25 0.25 0  23.5 0.25 0  23.75 0.25 0  24 0.25 0  24.25 0.25 0  24.5 0.25 0  24.75 0.25 0  25 0.25 0  0 0.5 0  0.25 0.5 0  0.5 0.5 0  0.75 0.5 0  1 0.5 0  1.25 0.5 0  1.5 0.5 0  1.75 0.5 0  2 0.5 0  2.25 0.5 0  2.5 0.5 0  2.75 0.5 0  3 0.5 0  3.25 0.5 0  3.5 0.5 0  3.75 0.5 0  4 0.5 0  4.25 0.5 0  4.5 0.5 0  4.75 0.5 0  5 0.5 0  5.25 0.5 0  5.5 0.5 0  5.75 0.5 0  6 0.5 0  6.25 0.5 0  6.5 0.5 0  6.75 0.5 0  7 0.5 0  7.25 0.5 0  7.5 0.5 0  7.75 0.5 0  8 0.5 0  8.25 0.5 0  8.5 0.5 0  8.75 0.5 0  9 0.5 0  9.25 0.5 0  9.5 0.5 0  9.75 0.5 0  10 0.5 0  10.25 0.5 0  10.5 0.5 0  10.75 0.5 0  11 0.5 0  11.25 0.5 0  11.5 0.5 0  11.75 0.5 0  12 0.5 0  12.25 0.5 0  12.5 0.5 0  12.75 0.5 0  13 0.5 0  13.25 0.5 0  13.5 0.5 0  13.75 0.5 0  14 0.5 0  14.25 0.5 0  14.5 0.5 0  14.75 0.5 0  15 0.5 0  15.25 0.5 0  15.5 0.5 0  15.75 0.5 0  16 0.5 0  16.25 0.5 0  16.5 0.5 0  16.75 0.5 0  17 0.5 0  17.25 0.5 0  17.5 0.5 0  17.75 0.5 0  18 0.5 0  18.25 0.5 0  18.5 0.5 0  18.75 0.5 0  19 0.5 0  19.25 0.5 0  19.5 0.5 0  19.75 0.5 0  20 0.5 0  20.25 0.5 0  20.5 0.5 0  20.75 0.5 0  21 0.5 0  21.25 0.5 0  21.5 0.5 0  21.75 0.5 0  22 0.5 0  22.25 0.5 0  22.5 0.5 0  22.75 0.5 0  23 0.5 0  23.25 0.5 0  23.5 0.5 0  23.75 0.5 0  24 0.5 0  24.25 0.5 0  24.5 0.5 0  24.75 0.5 0  25 0.5 0  0 0.75 0  0.25 0.75 0  0.5 0.75 0  0.75 0.75 0  1 0.75 0  1.25 0.75 0  1.5 0.75 0  1.75 0.75 0  2 0.75 0  2.25 0.75 0  2.5 0.75 0  2.75 0.75 0  3 0.75 0  3.25 0.75 0  3.5 0.75 0  3.75 0.75 0  4 0.75 0  4.25 0.75 0  4.5 0.75 0  4.75 0.75 0  5 0.75 0  5.25 0.75 0  5.5 0.75 0  5.75 0.75 0  6 0.75 0  6.25 0.75 0  6.5 0.75 0  6.75 0.75 0  7 0.75 0  7.25 0.75 0  7.5 0.75 0  7.75 0.75 0  8 0.75 0  8.25 0.75 0  8.5 0.75 0  8.75 0.75 0  9 0.75 0  9.25 0.75 0  9.5 0.75 0  9.75 0.75 0  10 0.75 0  10.25 0.75 0  10.5 0.75 0  10.75 0.75 0  11 0.75 0  11.25 0.75 0  11.5 0.75 0  11.75 0.75 0  12 0.75 0  12.25 0.75 0  12.5 0.75 0  12.75 0.75 0  13 0.75 0  13.25 0.75 0  13.5 0.75 0  13.75 0.75 0  14 0.75 0  14.25 0.75 0  14.5 0.75 0  14.75 0.75 0  15 0.75 0  15.25 0.75 0  15.5 0.75 0  15.75 0.75 0  16 0.75 0  16.25 0.75 0  16.5 0.75 0  16.75 0.75 0  17 0.75 0  17.25 0.75 0  17.5 0.75 0  17.75 0.75 0  18 0.75 0  18.25 0.75 0  18.5 0.75 0  18.75 0.75 0  19 0.75 0  19.25 0.75 0  19.5 0.75 0  19.75 0.75 0  20 0.75 0  20.25 0.75 0  20.5 0.75 0  20.75 0.75 0  21 0.75 0  21.25 0.75 0  21.5 0.75 0  21.75 0.75 0  22 0.75 0  22.25 0.75 0  22.5 0.75 0  22.75 0.75 0  23 0.75 0  23.25 0.75 0  23.5 0.75 0  23.75 0.75 0  24 0.75 0  24.25 0.75 0  24.5 0.75 0  24.75 0.75 0  25 0.75 0  0 1 0  0.25 1 0  0.5 1 0  0.75 1 0  1 1 0  1.25 1 0  1.5 1 0  1.75 1 0  2 1 0  2.25 1 0  2.5 1 0  2.75 1 0  3 1 0  3.25 1 0  3.5 1 0  3.75 1 0  4 1 0  4.25 1 0  4.5 1 0  4.75 1 0  5 1 0  5.25 1 0  5.5 1 0  5.75 1 0  6 1 0  6.25 1 0  6.5 1 0  6.75 1 0  7 1 0  7.25 1 0  7.5 1 0  7.75 1 0  8 1 0  8.25 1 0  8.5 1 0  8.75 1 0  9 1 0  9.25 1 0  9.5 1 0  9.75 1 0  10 1 0  10.25 1 0  10.5 1 0  10.75 1 0  11 1 0  11.25 1 0  11.5 1 0  11.75 1 0  12 1 0  12.25 1 0  12.5 1 0  12.75 1 0  13 1 0  13.25 1 0  13.5 1 0  13.75 1 0  14 1 0  14.25 1 0  14.5 1 0  14.75 1 0  15 1 0  15.25 1 0  15.5 1 0  15.75 1 0  16 1 0  16.25 1 0  16.5 1 0  16.75 1 0  17 1 0  17.25 1 0  17.5 1 0  17.75 1 0  18 1 0  18.25 1 0  18.5 1 0  18.75 1 0  19 1 0  19.25 1 0  19.5 1 0  19.75 1 0  20 1 0  20.25 1 0  20.5 1 0  20.75 1 0  21 1 0  21.25 1 0  21.5 1 0  21.75 1 0  22 1 0  22.25 1 0  22.5 1 0  22.75 1 0  23 1 0  23.25 1 0  23.5 1 0  23.75 1 0  24 1 0  24.25 1 0  24.5 1 0  24.75 1 0  25 1 0  0 1.25 0  0.25 1.25 0  0.5 1.25 0  0.75 1.25 0  1 1.25 0  1.25 1.25 0  1.5 1.25 0  1.75 1.25 0  2 1.25 0  2.25 1.25 0  2.5 1.25 0  2.75 1.25 0  3 1.25 0  3.25 1.25 0  3.5 1.25 0  3.75 1.25 0  4 1.25 0  4.25 1.25 0  4.5 1.25 0  4.75 1.25 0  5 1.25 0  5.25 1.25 0  5.5 1.25 0  5.75 1.25 0  6 1.25 0  6.25 1.25 0  6.5 1.25 0  6.75 1.25 0  7 1.25 0  7.25 1.25 0  7.5 1.25 0  7.75 1.25 0  8 1.25 0  8.25 1.25 0  8.5 1.25 0  8.75 1.25 0  9 1.25 0  9.25 1.25 0  9.5 1.25 0  9.75 1.25 0  10 1.25 0  10.25 1.25 0  10.5 1.25 0  10.75 1.25 0  11 1.25 0  11.25 1.25 0  11.5 1.25 0  11.75 1.25 0  12 1.25 0  12.25 1.25 0  12.5 1.25 0  12.75 1.25 0  13 1.25 0  13.25 1.25 0  13.5 1.25 0  13.75 1.25 0  14 1.25 0  14.25 1.25 0  14.5 1.25 0  14.75 1.25 0  15 1.25 0  15.25 1.25 0  15.5 1.25 0  15.75 1.25 0  16 1.25 0  16.25 1.25 0  16.5 1.25 0  16.75 1.25 0  17 1.25 0  17.25 1.25 0  17.5 1.25 0  17.75 1.25 0  18 1.25 0  18.25 1.25 0  18.5 1.25 0  18.75 1.25 0  19 1.25 0  19.25 1.25 0  19.5 1.25 0  19.75 1.25 0  20 1.25 0  20.25 1.25 0  20.5 1.25 0  20.75 1.25 0  21 1.25 0  21.25 1.25 0  21.5 1.25 0  21.75 1.25 0  22 1.25 0  22.25 1.25 0  22.5 1.25 0  22.75 1.25 0  23 1.25 0  23.25 1.25 0  23.5 1.25 0  23.75 1.25 0  24 1.25 0  24.25 1.25 0  24.5 1.25 0  24.75 1.25 0  25 1.25 0  0 1.5 0  0.25 1.5 0  0.5 1.5 0  0.75 1.5 0  1 1.5 0  1.25 1.5 0  1.5 1.5 0  1.75 1.5 0  2 1.5 0  2.25 1.5 0  2.5 1.5 0  2.75 1.5 0  3 1.5 0  3.25 1.5 0  3.5 1.5 0  3.75 1.5 0  4 1.5 0  4.25 1.5 0  4.5 1.5 0  4.75 1.5 0  5 1.5 0  5.25 1.5 0  5.5 1.5 0  5.75 1.5 0  6 1.5 0  6.25 1.5 0  6.5 1.5 0  6.75 1.5 0  7 1.5 0  7.25 1.5 0  7.5 1.5 0  7.75 1.5 0  8 1.5 0  8.25 1.5 0  8.5 1.5 0  8.75 1.5 0  9 1.5 0  9.25 1.5 0  9.5 1.5 0  9.75 1.5 0  10 1.5 0  10.25 1.5 0  10.5 1.5 0  10.75 1.5 0  11 1.5 0  11.25 1.5 0  11.5 1.5 0  11.75 1.5 0  12 1.5 0  12.25 1.5 0  12.5 1.5 0  12.75 1.5 0  13 1.5 0  13.25 1.5 0  13.5 1.5 0  13.75 1.5 0  14 1.5 0  14.25 1.5 0  14.5 1.5 0  14.75 1.5 0  15 1.5 0  15.25 1.5 0  15.5 1.5 0  15.75 1.5 0  16 1.5 0  16.25 1.5 0  16.5 1.5 0  16.75 1.5 0  17 1.5 0  17.25 1.5 0  17.5 1.5 0  17.75 1.5 0  18 1.5 0  18.25 1.5 0  18.5 1.5 0  18.75 1.5 0  19 1.5 0  19.25 1.5 0  19.5 1.5 0  19.75 1.5 0  20 1.5 0  20.25 1.5 0  20.5 1.5 0  20.75 1.5 0  21 1.5 0  21.25 1.5 0  21.5 1.5 0  21.75 1.5 0  22 1.5 0  22.25 1.5 0  22.5 1.5 0  22.75 1.5 0  23 1.5 0  23.25 1.5 0  23.5 1.5 0  23.75 1.5 0  24 1.5 0  24.25 1.5 0  24.5 1.5 0  24.75 1.5 0  25 1.5 0  0 1.75 0  0.25 1.75 0  0.5 1.75 0  0.75 1.75 0  1 1.75 0  1.25 1.75 0  1.5 1.75 0  1.75 1.75 0  2 1.75 0  2.25 1.75 0  2.5 1.75 0  2.75 1.75 0  3 1.75 0  3.25 1.75 0  3.5 1.75 0  3.75 1.75 0  4 1.75 0  4.25 1.75 0  4.5 1.75 0  4.75 1.75 0  5 1.75 0  5.25 1.75 0  5.5 1.75 0  5.75 1.75 0  6 1.75 0  6.25 1.75 0  6.5 1.75 0  6.75 1.75 0  7 1.75 0  7.25 1.75 0  7.5 1.75 0  7.75 1.75 0  8 1.75 0  8.25 1.75 0  8.5 1.75 0  8.75 1.75 0  9 1.75 0  9.25 1.75 0  9.5 1.75 0  9.75 1.75 0  10 1.75 0  10.25 1.75 0  10.5 1.75 0  10.75 1.75 0  11 1.75 0  11.25 1.75 0  11.5 1.75 0  11.75 1.75 0  12 1.75 0  12.25 1.75 0  12.5 1.75 0  12.75 1.75 0  13 1.75 0  13.25 1.75 0  13.5 1.75 0  13.75 1.75 0  14 1.75 0  14.25 1.75 0  14.5 1.75 0  14.75 1.75 0  15 1.75 0  15.25 1.75 0  15.5 1.75 0  15.75 1.75 0  16 1.75 0  16.25 1.75 0  16.5 1.75 0  16.75 1.75 0  17 1.75 0  17.25 1.75 0  17.5 1.75 0  17.75 1.75 0  18 1.75 0  18.25 1.75 0  18.5 1.75 0  18.75 1.75 0  19 1.75 0  19.25 1.75 0  19.5 1.75 0  19.75 1.75 0  20 1.75 0  20.25 1.75 0  20.5 1.75 0  20.75 1.75 0  21 1.75 0  21.25 1.75 0  21.5 1.75 0  21.75 1.75 0  22 1.75 0  22.25 1.75 0  22.5 1.75 0  22.75 1.75 0  23 1.75 0  23.25 1.75 0  23.5 1.75 0  23.75 1.75 0  24 1.75 0  24.25 1.75 0  24.5 1.75 0  24.75 1.75 0  25 1.75 0  0 2 0  0.25 2 0  0.5 2 0  0.75 2 0  1 2 0  1.25 2 0  1.5 2 0  1.75 2 0  2 2 0  2.25 2 0  2.5 2 0  2.75 2 0  3 2 0  3.25 2 0  3.5 2 0  3.75 2 0  4 2 0  4.25 2 0  4.5 2 0  4.75 2 0  5 2 0  5.25 2 0  5.5 2 0  5.75 2 0  6 2 0  6.25 2 0  6.5 2 0  6.75 2 0  7 2 0  7.25 2 0  7.5 2 0  7.75 2 0  8 2 0  8.25 2 0  8.5 2 0  8.75 2 0  9 2 0  9.25 2 0  9.5 2 0  9.75 2 0  10 2 0  10.25 2 0  10.5 2 0  10.75 2 0  11 2 0  11.25 2 0 
[...]
<PointData  Scalars="f_23"> 
<DataArray  type="Float64"  Name="f_23"  format="ascii">2.7873214361397991e-01  2.8540922585427320e-01  3.0110549903366790e-01  3.2565256555304822e-01  3.5807309195022519e-01  3.9695341816655394e-01  4.4062561886659735e-01  4.8731730975203141e-01  5.3529223541818782e-01  5.8297335752021984e-01  6.2903535076739947e-01  6.7245791544860822e-01  7.1253903937812069e-01  7.4887450367080433e-01  7.8131427340766579e-01  8.0990737697745863e-01  8.3484519756822106e-01  8.5641007784796275e-01  8.7493296454341218e-01  8.9076123526040651e-01  9.0423612731351233e-01  9.1567827505403698e-01  9.2537955439049302e-01  9.3359950232262334e-01  9.4056483748901587e-01  9.4647092705851144e-01  9.5148435204737603e-01  9.5574598295907987e-01  9.5937418066119895e-01  9.6246788684329621e-01  9.6510947303169270e-01  9.6736728704886199e-01  9.6929788023745678e-01  9.7094792531060736e-01  9.7235584915985185e-01  9.7355321159831942e-01  9.7456586282368107e-01  9.7541491137903491e-01  9.7611753190122641e-01  9.7668763881804832e-01  9.7713644889820483e-01  9.7747295245917454e-01  9.7770431024264914e-01  9.7783619052856829e-01  9.7787305897436438e-01  9.7781843189973339e-01  9.7767510223332510e-01  9.7744534602935695e-01  9.7713111627644134e-01  9.7673422958245559e-01  9.7625655015300894e-01  9.7570017421586452e-01  9.7506761661732211e-01  9.7436199968252968e-01  9.7358724256810658e-01  9.7274824725568187e-01  9.7185107509899982e-01  9.7090310556191495e-01  9.6991316664996285e-01  9.6889162478682467e-01  9.6785042081260175e-01  9.6680303870302453e-01  9.6576439483302512e-01  9.6475063837201824e-01  9.6377885780957762e-01  9.6286669458682173e-01  9.6203187203343254e-01  9.6129165571488684e-01  9.6066226908770769e-01  9.6015829510357942e-01  9.5979209913180497e-01  9.5957331044627592e-01  9.5950839799266119e-01  9.5960037106795193e-01  9.5984862723792019e-01  9.6024895908012908e-01  9.6079371932435786e-01  9.6147213201412485e-01  9.6227072676262182e-01  9.6317386513566916e-01  9.6416432339820124e-01  9.6522389458228453e-01  9.6633397488441597e-01  9.6747610420249130e-01  9.6863243734660842e-01  9.6978613016643711e-01  9.7092163263356202e-01  9.7202488805209208e-01  9.7308344351302034e-01  9.7408648116113472e-01  9.7502478272705739e-01  9.7589064117691904e-01  9.7667773343077990e-01  9.7738096708508626e-01  9.7799631197995063e-01  9.7852062377226323e-01  9.7895145902859293e-01  9.7928686015345945e-01  9.7952501360176536e-01  9.7966337679606263e-01  9.7969547733305462e-01  2.8481876447426119e-01  2.9024811767054043e-01  3.0549391675151505e-01  3.2973178668726494e-01  3.6184538773391672e-01  4.0039676869215568e-01  4.4372178879767715e-01  4.9005906483402462e-01  5.3768432502101993e-01  5.8503105482684659e-01  6.3078194859587744e-01  6.7392194585817644e-01  7.1375169391805260e-01  7.4986751015615682e-01  7.8211831480150917e-01  8.1055102798357814e-01  8.3535429939623895e-01  8.5680745450870777e-01  8.7523838783019814e-01  8.9099155839257116e-01  9.0440552263146445e-01  9.1579852623156577e-01  9.2546036714641167e-01  9.3364880906148728e-01  9.4058908050607437e-01  9.4647531195426338e-01  9.5147306802524623e-01  9.5572239004423587e-01  9.5934096593785556e-01  9.6242719290686340e-01  9.6506300228851594e-01  9.6731638550663368e-01  9.6924360418916222e-01  9.7089109394659023e-01  9.7229708572676121e-01  9.7349297530988776e-01  9.7450447334451706e-01  9.7535256736280818e-01  9.7605432477393395e-01  9.7662356275563167e-01  9.7707140775318979e-01  9.7740676423972028e-01  9.7763670963571092e-01  9.7776682988332186e-01  9.7780150811952016e-01  9.7774417715610495e-01  9.7759754499835416e-01  9.7736380135031375e-01  9.7704481189012138e-01  9.7664230597649437e-01  9.7615806229066904e-01  9.7559409565301380e-01  9.7495284681491867e-01  9.7423737536450905e-01  9.7345155397410577e-01  9.7260026006914491e-01  9.7168955867179507e-01  9.7072686778676753e-01  9.6972109543797524e-01  9.6868273558634610e-01  9.6762390897110462e-01  9.6655833475966690e-01  9.6550122009392403e-01  9.6446905744350819e-01  9.6347932424499894e-01  9.6255008554462651e-01  9.6169950794469650e-01  9.6094530148497381e-01  9.6030411433146667e-01  9.5979091229646574e-01  9.5941838024409454e-01  9.5919638444670863e-01  9.5913153335257284e-01  9.5922686884720454e-01  9.5948171129439497e-01  9.5989167027907374e-01  9.6044882028070777e-01  9.6114202792287851e-01  9.6195740638950278e-01  9.6287886424668623e-01  9.6388871102650020e-01  9.6496828078122276e-01  9.6609853717526706e-01  9.6726062891060294e-01  9.6843637147840256e-01  9.6960863939300812e-01  9.7076166124512731e-01  9.7188121732982569e-01  9.7295474571847862e-01  9.7397136716320998e-01  9.7492184208765187e-01  9.7579847424598076e-01  9.7659497564909770e-01  9.7730630632510085e-01  9.7792850062964465e-01  9.7845848930379042e-01  9.7889392355328331e-01  9.7923300610741615e-01  9.7947434858294369e-01  9.7961699011657344e-01  9.7966141961111486e-01  2.9883297143176202e-01  3.0381621532229536e-01  3.1848400080534711e-01  3.4203706638634335e-01  3.7334259718685470e-01  4.1097150144225519e-01  4.5328776565705414e-01  4.9856772957168044e-01  5.4512724801700063e-01  5.9143708272169360e-01  6.3621073860229604e-01  6.7845552191374214e-01  7.1748556388699813e-01  7.5290256581355863e-01  7.8455427688305390e-01  8.1248173506963817e-01  8.3686477717704755e-01  8.5797248245881119e-01  8.7612219200469232e-01  8.9164826391566299e-01  9.0488005576411235e-01  9.1612773078998644e-01  9.2567417286662790e-01  9.3377135019410495e-01  9.4063970854749579e-01  9.4646947798289138e-01  9.5142307027977802e-01  9.5563799413300476e-01  9.5922991103789945e-01  9.6229559956462374e-01  9.6491569746513461e-01  9.6715715933489010e-01  9.6907541117788976e-01  9.7071620947633008e-01  9.7211722684938251e-01  9.7330939320690479e-01  9.7431802335929241e-01  9.7516376130841498e-01  9.7586336921931638e-01  9.7643038618756217e-01  9.7687567887800786e-01  9.7720790320584261e-01  9.7743389360709765e-01  9.7755899416034941e-01  9.7758734387484303e-01  9.7752212681913753e-01  9.7736579637421539e-01  9.7712028168860332e-01  9.7678718331514058e-01  9.7636796393928382e-01  9.7586413898455016e-01  9.7527747062035364e-01  9.7461016722595484e-01  9.7386508862066246e-01  9.7304595531887883e-01  9.7215755771155155e-01  9.7120595846912172e-01  9.7019867872961163e-01  9.6914485598318523e-01  9.6805535927846142e-01  9.6694284581648327e-01  9.6582174257201281e-01  9.6470813769339026e-01  9.6361956941676785e-01  9.6257470527229072e-01  9.6159291140880376e-01  9.6069372056888092e-01  9.5989621692563387e-01  9.5921836566096541e-01  9.5867632362574495e-01  9.5828377342866333e-01  9.5805132575711371e-01  9.5798603290869400e-01  9.5809105021113750e-01  9.5836547166524788e-01  9.5880435280044485e-01  9.5939891889463891e-01  9.6013694212236345e-01  9.6100325855287605e-01  9.6198038660114149e-01  9.6304920339674549e-01  9.6418963481908326e-01  9.6538131829442431e-01  9.6660420402821701e-01  9.6783906903045891e-01  9.6906792787495966e-01  9.7027433350640813e-01  9.7144356969661361e-01  9.7256274337915571e-01  9.7362078979550215e-01  9.7460840617092415e-01  9.7551793071337445e-01  9.7634318342948778e-01  9.7707928398486510e-01  9.7772246006371466e-01  9.7826985803796096e-01  9.7871936750508226e-01  9.7906947575259085e-01  9.7931918657100481e-01  9.7946808896760840e-01  9.7951673378736437e-01  3.2080804436488292e-01  3.2548485939504745e-01  3.3946622668834192e-01  3.6202783125762367e-01  3.9208038564179704e-01  4.2824231583757433e-01  4.6893627223101880e-01  5.1250500370463026e-01  5.5733207571836507e-01  6.0195065349632360e-01  6.4512604009770147e-01  6.8590356267422725e-01  7.2362075213024490e-01  7.5788922833765848e-01  7.8855562650104705e-01  8.1565185013732111e-01  8.3934354403351263e-01  8.5988306251072544e-01  8.7757040584384194e-01  8.9272327853892242e-01  9.0565584852788872e-01  9.1666492786907516e-01  9.2602198345602116e-01  9.3396942163852370e-01  9.4071980603516159e-01  9.4645694671779368e-01  9.5133807263101544e-01  9.5549653429919634e-01  9.5904466984829295e-01  9.6207660576317144e-01  9.6467086178003314e-01  9.6689269557145174e-01  9.6879616559883797e-01  9.7042591651581456e-01  9.7181870611397658e-01  9.7300469993049188e-01  9.7400856206943698e-01  9.7485037043761391e-01  9.7554638273212557e-01  9.7610967695774165e-01  9.7655068749976814e-01  9.7687765512412339e-01  9.7709700687293977e-01  9.7721367973397744e-01  9.7723140019148558e-01  9.7715293028536465e-01  9.7698028956245397e-01  9.7671496123133295e-01  9.7635808985215811e-01  9.7591067691930922e-01  9.7537377963441318e-01  9.7474871692517773e-01  9.7403728524865463e-01  9.7324198484493107e-01  9.7236625482222772e-01  9.7141471274208202e-01  9.7039339128081126e-01  9.6930996120133650e-01  9.6817392650999889e-01  9.6699677463994960e-01  9.6579206224511238e-01  9.6457541623191545e-01  9.6336443054427323e-01  9.6217844242751804e-01  9.6103817772942435e-01  9.5996526325837017e-01  9.5898161492482970e-01  9.5810872251257839e-01  9.5736686420823158e-01  9.5677429490563370e-01  9.5634646014478786e-01  9.5609529087614742e-01  9.5602863206880728e-01  9.5614985023271792e-01  9.5645765177486963e-01  9.5694612714907878e-01  9.5760501700187040e-01  9.5842017827072612e-01  9.5937421266790179e-01  9.6044720893288338e-01  9.6161754468168092e-01  9.6286269380425249e-01  9.6415999055741408e-01  9.6548731056467529e-01  9.6682364032967960e-01  9.6814951901039448e-01  9.6944734769239649e-01  9.7070157119952605e-01  9.7189874496879691e-01  9.7302750448286401e-01  9.7407845732475162e-01  9.7504401846090338e-01  9.7591820837172993e-01  9.7669643169491616e-01  9.7737525171536099e-01  9.7795217398418277e-01  9.7842545142472093e-01  9.7879392458072467e-01  9.7905691448709109e-01  9.7921418466929100e-01  9.7926594015205215e-01  3.5006306945839943e-01  3.5443085227089677e-01  3.6759512059173133e-01  3.8889445290286306e-01  4.1730536727133344e-01  4.5152142425990199e-01  4.9005132545959856e-01  5.3133071799208476e-01  5.7383575312293311e-01  6.1618409057996593e-01  6.5721097265744588e-01  6.9601317724565592e-01  7.3196017214181885e-01  7.6467751090953184e-01  7.9401097254444231e-01  8.1998078203726033e-01  8.4273400926166275e-01  8.6250090547378466e-01  8.7955841722393524e-01  8.9420201297998636e-01  9.0672550993125411e-01  9.1740778190846672e-01  9.2650491932985346e-01  9.3424642349044951e-01  9.4083419998031181e-01  9.4644336307340249e-01  9.5122411032977361e-01  9.5530414223915217e-01  9.5879127417429433e-01  9.6177601759844833e-01  9.6433400023393823e-01  9.6652815832090022e-01  9.6841067550183935e-01  9.7002466848553315e-01  9.7140563437637495e-01  9.7258268206667342e-01  9.7357957300999676e-01  9.7441559684857637e-01  9.7510630598405090e-01  9.7566413105622929e-01  9.7609889692755658e-01  9.7641825645637503e-01  9.7662805723902624e-01  9.7673265467988046e-01  9.7673518322279262e-01  9.7663779632348702e-01  9.7644188471126603e-01  9.7614828161335110e-01  9.7575746281433984e-01  9.7526974860159055e-01  9.7468551369770318e-01  9.7400541008720587e-01  9.7323060608598455e-01  9.7236304296530329e-01  9.7140570783632862e-01  9.7036291827960663e-01  9.6924061039387677e-01  9.6804661767177869e-01  9.6679092365357322e-01  9.6548586708744055e-01  9.6414627491768290e-01  9.6278949654030144e-01  9.6143531317768638e-01  9.6010569964336745e-01  9.5882442269757850e-01  9.5761647075746381e-01  9.5650732350784284e-01  9.5552208591340848e-01  9.5468452759485078e-01  9.5401608336409793e-01  9.5353488160569400e-01  9.5325487205320514e-01  9.5318512190601501e-01  9.5332933874326242e-01  9.5368566110846553e-01  9.5424673491976797e-01  9.5500006884525668e-01  9.5592863770428982e-01  9.5701168287111971e-01  9.5822564491726003e-01  9.5954515761128500e-01  9.6094403396882833e-01  9.6239618328337073e-01  9.6387641114688394e-01  9.6536107017672923e-01  9.6682854531061324e-01  9.6825957227516579e-01  9.6963739988904885e-01  9.7094781555854948e-01  9.7217905855737841e-01  9.7332164778545616e-01  9.7436815028573698e-01  9.7531291460394287e-01  9.7615178985405748e-01  9.7688184778797849e-01  9.7750112183625926e-01  9.7800837437772559e-01  9.7840290130535623e-01  9.7868437963305943e-01  9.7885275362411539e-01  9.7890812519413195e-01  3.8553920513883844e-01  3.8956876442398536e-01  4.0178860105027780e-01  4.2159404215501578e-01  4.4803879066244595e-01  4.7991082659192669e-01  5.1582673768263398e-01  5.5433693498823966e-01  5.9403055484080791e-01  6.3362757044011875e-01  6.7204760567348787e-01  7.0844954011199690e-01  7.4224162699783836e-01  7.7306673940028903e-01  8.0077030561663642e-01  8.2535919611818953e-01  8.4695875027503909e-01  8.6577310485620107e-01  8.8205178684734775e-01  8.9606367526802544e-01  9.0807813778709545e-01  9.1835240520519146e-01  9.2712394262940934e-01  9.3460656207709325e-01  9.4098916669986588e-01  9.4643622717275633e-01  9.5108930738757469e-01  9.5506914886385830e-01  9.5847797941554003e-01  9.6140183062511120e-01  9.6391273494848151e-01  9.6607073307934177e-01  9.6792566186020390e-01  9.6951871804170042e-01  9.7088380797590024e-01  9.7204870123272702e-01  9.7303600958938896e-01  9.7386401357627317e-01  9.7454735793829406e-01  9.7509763576019293e-01  9.7552387909890548e-01  9.7583297206328667e-01  9.7603000054780265e-01  9.7611855134190406e-01  9.7610097212282909e-01  9.7597860288007621e-01  9.7575198857065504e-01  9.7542108219940560e-01  9.7498544697198730e-01  9.7444446557329323e-01  9.7379756385433736e-01  9.7304445512037474e-01  9.7218540964249722e-01  9.7122155180183978e-01  9.7015518427422864e-01  9.6899013477412255e-01  9.6773211608623910e-01  9.6638908454053329e-01  9.6497157603269579e-01  9.6349299268246691e-01  9.6196980802000243e-01  9.6042165517531231e-01  9.5887126202712447e-01  9.5734420073202053e-01  9.5586842734646393e-01  9.5447360071550058e-01  9.5319018802272093e-01  9.5204838604410136e-01  9.5107690995146144e-01  9.5030172245106459e-01  9.4974479177215876e-01  9.4942297445562485e-01  9.4934711586935916e-01  9.4952144720823628e-01  9.4994333352248550e-01  9.5060339589092147e-01  9.5148599634089559e-01  9.5257004119911737e-01  9.5383003161228241e-01  9.5523727228153266e-01  9.5676114266070478e-01  9.5837033883576828e-01  9.6003400731238941e-01  9.6172271118388941e-01  9.6340919136965364e-01  9.6506890769322939e-01  9.6668036401636859e-01  9.6822523684038431e-01  9.6968833702802260e-01  9.7105743968220892e-01  9.7232301841220381e-01  9.7347791821762075e-01  9.7451699712057127e-01  9.7543676149864389e-01  9.7623501465677631e-01  9.7691053311131515e-01  9.7746278059936820e-01  9.7789166572987740e-01  9.7819734443552264e-01  9.7838006112440445e-01  9.7844001230736499e-01  4.2593561765563265e-01  4.2960012287747090e-01  4.4077165408214325e-01  4.5890256212433611e-01  4.8313208987007478e-01  5.1235639821866386e-01  5.4531602497356935e-01  5.8069231811375266e-01  6.1720229484907274e-01  6.5368103294336288e-01  6.8914279589210148e-01  7.2281616222173295e-01  7.5415320654574924e-01  7.8281685888608110e-01  8.0865300393713424e-01  8.3165445400129034e-01  8.5192302707191581e-01  8.6963425683047690e-01  8.8500739443920406e-01  8.9828176403904514e-01  9.0969939539532352e-01  9.1949318630224708e-01  9.2787955327036353e-01  9.3505449068347823e-01  9.4119206617834572e-01  9.4644455165795094e-01  9.5094357278710373e-01  9.5480182655437862e-01  9.5811505442412670e-01  9.6096406551102065e-01  9.6341668294866079e-01  9.6552954210503295e-01  9.6734970675466458e-01  9.6891609345859342e-01  9.7026070909469486e-01  9.7140971471359217e-01  9.7238433288492865e-01  9.7320161702975794e-01  9.7387510100559715e-01  9.7441534615951853e-01  9.7483040167098212e-01  9.7512619256806821e-01  9.7530684849198757e-01  9.7537498519458588e-01  9.7533194991430305e-01  9.7517804118010776e-01  9.7491271320243489e-01  9.7453477476091488e-01  9.7404259230004842e-01  9.7343430667641417e-01  9.7270807251309377e-01  9.7186232822423468e-01  9.7089610326080267e-01  9.6980936676488583e-01  9.6860341837622665e-01  9.6728131722511002e-01  9.6584833908132195e-01  9.6431244428718677e-01  9.6268473080600303e-01  9.6097983810544385e-01  9.5921625967153934e-01  9.5741651606824452e-01  9.5560713823204690e-01  9.5381841378388255e-01  9.5208385895143588e-01  9.5043939596500981e-01  9.4892224019998461e-01  9.4756953120498488e-01  9.4641677394929891e-01  9.4549618681542746e-01  9.4483507611977624e-01  9.4445436862248300e-01  9.4436743024299186e-01  9.4457927987213575e-01  9.4508627328845163e-01  9.4587628788866718e-01  9.4692939032388634e-01  9.4821892310494604e-01  9.4971290919836671e-01  9.5137565025847448e-01  9.5316938661625616e-01  9.5505589496172349e-01  9.5699791998876738e-01  9.5896036478095248e-01  9.6091119653543233e-01  9.6282205487047567e-01  9.6466857601300771e-01  9.6643046556622314e-01  9.6809136463861689e-01  9.6963855932979293e-01  9.7106258312879334e-01  9.7235675726927884e-01  9.7351670712132421e-01  9.7453988470334751e-01  9.7542511946043042e-01  9.7617221228099671e-01  9.7678158161776962e-01  9.7725396546030441e-01  9.7759017840400697e-01  9.7779091896925496e-01  9.7785662003046647e-01  4.6981178928364548e-01  4.7309503825407351e-01  4.8314907416862546e-01  4.9948561745497350e-01  5.2133563476231393e-01  5.4771255607599090e-01  5.7749117112463411e-01  6.0949385479962426e-01  6.4257450610346767e-01  6.7569083232916261e-01  7.0795772402234525e-01  7.3867800966619235e-01  7.6735085170181216e-01  7.9366137006689053e-01  8.1745704748002079e-01  8.3871693171343220e-01  8.5751891813993208e-01  8.7400900314338681e-01  8.8837485653003290e-01  9.0082472015869963e-01  9.1157166393630307e-01  9.2082263582489865e-01  9.2877146319777604e-01  9.3559490378061294e-01  9.4145091605127640e-01  9.4647845255957064e-01  9.5079822962929073e-01  9.5451406733771715e-01  9.5771451249512107e-01  9.6047455125793224e-01  9.6285728845555729e-01  9.6491552127078917e-01  9.6669316972898123e-01  9.6822654941105146e-01  9.6954548619936920e-01  9.7067428129971944e-01  9.7163253922773796e-01  9.7243587334164205e-01  9.7309650386021718e-01  9.7362376282220531e-01  9.7402451958308045e-01  9.7430353950356696e-01  9.7446378764059738e-01  9.7450668860489698e-01  9.7443235334354739e-01  9.7423978344388895e-01  9.7392706360759929e-01  9.7349155315052738e-01  9.7293008765096178e-01  9.7223920206279157e-01  9.7141538654976634e-01  9.7045538574927848e-01  9.6935655085188510e-01  9.6811725145537320e-01  9.6673735027012053e-01  9.6521873809485359e-01  9.6356591882960962e-01  9.6178662462926323e-01  9.5989242993350332e-01  9.5789932079252715e-01  9.5582816394058601e-01  9.5370501031802934e-01  9.5156116254111867e-01  9.4943293770403070e-01  9.4736106815779875e-01  9.4538970498816732e-01  9.4356502175620816e-01  9.4193345759711944e-01  9.4053968468738192e-01  9.3942442913757929e-01  9.3862230921360634e-01  9.3815987336514850e-01  9.3805401762114360e-01  9.3831093551754885e-01  9.3892570593803626e-01  9.3988256115711688e-01  9.4115580804479226e-01  9.4271131011677478e-01  9.4450838635497159e-01  9.4650195126404779e-01  9.4864471241501980e-01  9.5088925561529447e-01  9.5318987926853127e-01  9.5550408174814672e-01  9.5779365141510753e-01  9.6002535177177784e-01  9.6217122941950206e-01  9.6420859739615783e-01  9.6611976058630644e-01  9.6789155430241314e-01  9.6951476390774016e-01  9.7098348496022480e-01  9.7229447218530773e-01  9.7344651361972101e-01  9.7443985494846075e-01  9.7527568926099673e-01  9.7595571956027849e-01  9.7648179537667856e-01  9.7685562060480147e-01  9.7707852720630062e-01  9.7715130939378092e-01  5.1568806161490099e-01  5.1858658447850536e-01  5.2749331864160198e-01  5.4198111070727295e-01  5.6137597723062171e-01  5.8481300066027786e-01  6.1130578157149507e-01  6.3982175524256024e-01  6.6935491683073400e-01  6.9898806731521357e-01  7.2793869388629651e-01  7.5558561065264063e-01  7.8147672291143289e-01  8.0532093589075071e-01  8.2696879278570545e-01  8.4638679994445276e-01  8.6362982607011629e-01  8.7881485741486243e-01  8.9209814925888664e-01  9.0365671491019883e-01  9.1367427410085800e-01  9.2233126560335565e