<?xml version="1.0"?>
<VTKFile type="UnstructuredGrid"  version="0.1"  >
<UnstructuredGrid>
<Piece  NumberOfPoints="10201" NumberOfCells="20000">
<Points>
<DataArray  type="Float64"  NumberOfComponents="3"  format="ascii">0 0 0  0.25 0 0  0.5 0 0  0.75 0 0  1 0 0  1.25 0 0  1.5 0 0  1.75 0 0  2 0 0  2.25 0 0  2.5 0 0  2.75 0 0  3 0 0  3.25 0 0  3.5 0 0  3.75 0 0  4 0 0  4.25 0 0  4.5 0 0  4.75 0 0  5 0 0  5.25 0 0  5.5 0 0  5.75 0 0  6 0 0  6.25 0 0  6.5 0 0  6.75 0 0  7 0 0  7.25 0 0  7.5 0 0  7.75 0 0  8 0 0  8.25 0 0  8.5 0 0  8.75 0 0  9 0 0  9.25 0 0  9.5 0 0  9.75 0 0  10 0 0  10.25 0 0  10.5 0 0  10.75 0 0  11 0 0  11.25 0 0  11.5 0 0  11.75 0 0  12 0 0  12.25 0 0  12.5 0 0  12.75 0 0  13 0 0  13.25 0 0  13.5 0 0  13.75 0 0  14 0 0  14.25 0 0  14.5 0 0  14.75 0 0  15 0 0  15.25 0 0  15.5 0 0  15.75 0 0  16 0 0  16.25 0 0  16.5 0 0  16.75 0 0  17 0 0  17.25 0 0  17.5 0 0  17.75 0 0  18 0 0  18.25 0 0  18.5 0 0  18.75 0 0  19 0 0  19.25 0 0  19.5 0 0  19.75 0 0  20 0 0  20.25 0 0  20.5 0 0  20.75 0 0  21 0 0  21.25 0 0  21.5 0 0  21.75 0 0  22 0 0  22.25 0 0  22.5 0 0  22.75 0 0  23 0 0  23.25 0 0  23.5 0 0  23.75 0 0  24 0 0  24.25 0 0  24.5 0 0  24.75 0 0  25 0 0  0 0.25 0  0.25 0.25 0  0.5 0.25 0  0.75 0.25 0  1 0.25 0  1.25 0.25 0  1.5 0.25 0  1.75 0.25 0  2 0.25 0  2.25 0.25 0  2.5 0.25 0  2.75 0.25 0  3 0.25 0  3.25 0.25 0  3.5 0.25 0  3.75 0.25 0  4 0.25 0  4.25 0.25 0  4.5 0.25 0  4.75 0.25 0  5 0.25 0  5.25 0.25 0  5.5 0.25 0  5.75 0.25 0  6 0.25 0  6.25 0.25 0  6.5 0.25 0  6.75 0.25 0  7 0.25 0  7.25 0.25 0  7.5 0.25 0  7.75 0.25 0  8 0.25 0  8.25 0.25 0  8.5 0.25 0  8.75 0.25 0  9 0.25 0  9.25 0.25 0  9.5 0.25 0  9.75 0.25 0  10 0.25 0  10.25 0.25 0  10.5 0.25 0  10.75 0.25 0  11 0.25 0  11.25 0.25 0  11.5 0.25 0  11.75 0.25 0  12 0.25 0  12.25 0.25 0  12.5 0.25 0  12.75 0.25 0  13 0.25 0  13.25 0.25 0  13.5 0.25 0  13.75 0.25 0  14 0.25 0  14.25 0.25 0  14.5 0.25 0  14.75 0.25 0  15 0.25 0  15.25 0.25 0  15.5 0.25 0  15.75 0.25 0  16 0.25 0  16.25 0.25 0  16.5 0.25 0  16.75 0.25 0  17 0.25 0  17.25 0.25 0  17.5 0.25 0  17.75 0.25 0  18 0.25 0  18.25 0.25 0  18.5 0.25 0  18.75 0.25 0  19 0.25 0  19.25 0.25 0  19.5 0.25 0  19.75 0.25 0  20 0.25 0  20.25 0.25 0  20.5 0.25 0  20.75 0.25 0  21 0.25 0  21.25 0.25 0  21.5 0.25 0  21.75 0.25 0  22 0.25 0  22.25 0.25 0  22.5 0.25 0  22.75 0.25 0  23 0.25 0  23.25 0.25 0  23.5 0.25 0  23.75 0.25 0  24 0.25 0  24.25 0.25 0  24.5 0.25 0  24.75 0.25 0  25 0.25 0  0 0.5 0  0.25 0.5 0  0.5 0.5 0  0.75 0.5 0  1 0.5 0  1.25 0.5 0  1.5 0.5 0  1.75 0.5 0  2 0.5 0  2.25 0.5 0  2.5 0.5 0  2.75 0.5 0  3 0.5 0  3.25 0.5 0  3.5 0.5 0  3.75 0.5 0  4 0.5 0  4.25 0.5 0  4.5 0.5 0  4.75 0.5 0  5 0.5 0  5.25 0.5 0  5.5 0.5 0  5.75 0.5 0  6 0.5 0  6.25 0.5 0  6.5 0.5 0  6.75 0.5 0  7 0.5 0  7.25 0.5 0  7.5 0.5 0  7.75 0.5 0  8 0.5 0  8.25 0.5 0  8.5 0.5 0  8.75 0.5 0  9 0.5 0  9.25 0.5 0  9.5 0.5 0  9.75 0.5 0  10 0.5 0  10.25 0.5 0  10.5 0.5 0  10.75 0.5 0  11 0.5 0  11.25 0.5 0  11.5 0.5 0  11.75 0.5 0  12 0.5 0  12.25 0.5 0  12.5 0.5 0  12.75 0.5 0  13 0.5 0  13.25 0.5 0  13.5 0.5 0  13.75 0.5 0  14 0.5 0  14.25 0.5 0  14.5 0.5 0  14.75 0.5 0  15 0.5 0  15.25 0.5 0  15.5 0.5 0  15.75 0.5 0  16 0.5 0  16.25 0.5 0  16.5 0.5 0  16.75 0.5 0  17 0.5 0  17.25 0.5 0  17.5 0.5 0  17.75 0.5 0  18 0.5 0  18.25 0.5 0  18.5 0.5 0  18.75 0.5 0  19 0.5 0  19.25 0.5 0  19.5 0.5 0  19.75 0.5 0  20 0.5 0  20.25 0.5 0  20.5 0.5 0  20.75 0.5 0  21 0.5 0  21.25 0.5 0  21.5 0.5 0  21.75 0.5 0  22 0.5 0  22.25 0.5 0  22.5 0.5 0  22.75 0.5 0  23 0.5 0  23.25 0.5 0  23.5 0.5 0  23.75 0.5 0  24 0.5 0  24.25 0.5 0  24.5 0.5 0  24.75 0.5 0  25 0.5 0  0 0.75 0  0.25 0.75 0  0.5 0.75 0  0.75 0.75 0  1 0.75 0  1.25 0.75 0  1.5 0.75 0  1.75 0.75 0  2 0.75 0  2.25 0.75 0  2.5 0.75 0  2.75 0.75 0  3 0.75 0  3.25 0.75 0  3.5 0.75 0  3.75 0.75 0  4 0.75 0  4.25 0.75 0  4.5 0.75 0  4.75 0.75 0  5 0.75 0  5.25 0.75 0  5.5 0.75 0  5.75 0.75 0  6 0.75 0  6.25 0.75 0  6.5 0.75 0  6.75 0.75 0  7 0.75 0  7.25 0.75 0  7.5 0.75 0  7.75 0.75 0  8 0.75 0  8.25 0.75 0  8.5 0.75 0  8.75 0.75 0  9 0.75 0  9.25 0.75 0  9.5 0.75 0  9.75 0.75 0  10 0.75 0  10.25 0.75 0  10.5 0.75 0  10.75 0.75 0  11 0.75 0  11.25 0.75 0  11.5 0.75 0  11.75 0.75 0  12 0.75 0  12.25 0.75 0  12.5 0.75 0  12.75 0.75 0  13 0.75 0  13.25 0.75 0  13.5 0.75 0  13.75 0.75 0  14 0.75 0  14.25 0.75 0  14.5 0.75 0  14.75 0.75 0  15 0.75 0  15.25 0.75 0  15.5 0.75 0  15.75 0.75 0  16 0.75 0  16.25 0.75 0  16.5 0.75 0  16.75 0.75 0  17 0.75 0  17.25 0.75 0  17.5 0.75 0  17.75 0.75 0  18 0.75 0  18.25 0.75 0  18.5 0.75 0  18.75 0.75 0  19 0.75 0  19.25 0.75 0  19.5 0.75 0  19.75 0.75 0  20 0.75 0  20.25 0.75 0  20.5 0.75 0  20.75 0.75 0  21 0.75 0  21.25 0.75 0  21.5 0.75 0  21.75 0.75 0  22 0.75 0  22.25 0.75 0  22.5 0.75 0  22.75 0.75 0  23 0.75 0  23.25 0.75 0  23.5 0.75 0  23.75 0.75 0  24 0.75 0  24.25 0.75 0  24.5 0.75 0  24.75 0.75 0  25 0.75 0  0 1 0  0.25 1 0  0.5 1 0  0.75 1 0  1 1 0  1.25 1 0  1.5 1 0  1.75 1 0  2 1 0  2.25 1 0  2.5 1 0  2.75 1 0  3 1 0  3.25 1 0  3.5 1 0  3.75 1 0  4 1 0  4.25 1 0  4.5 1 0  4.75 1 0  5 1 0  5.25 1 0  5.5 1 0  5.75 1 0  6 1 0  6.25 1 0  6.5 1 0  6.75 1 0  7 1 0  7.25 1 0  7.5 1 0  7.75 1 0  8 1 0  8.25 1 0  8.5 1 0  8.75 1 0  9 1 0  9.25 1 0  9.5 1 0  9.75 1 0  10 1 0  10.25 1 0  10.5 1 0  10.75 1 0  11 1 0  11.25 1 0  11.5 1 0  11.75 1 0  12 1 0  12.25 1 0  12.5 1 0  12.75 1 0  13 1 0  13.25 1 0  13.5 1 0  13.75 1 0  14 1 0  14.25 1 0  14.5 1 0  14.75 1 0  15 1 0  15.25 1 0  15.5 1 0  15.75 1 0  16 1 0  16.25 1 0  16.5 1 0  16.75 1 0  17 1 0  17.25 1 0  17.5 1 0  17.75 1 0  18 1 0  18.25 1 0  18.5 1 0  18.75 1 0  19 1 0  19.25 1 0  19.5 1 0  19.75 1 0  20 1 0  20.25 1 0  20.5 1 0  20.75 1 0  21 1 0  21.25 1 0  21.5 1 0  21.75 1 0  22 1 0  22.25 1 0  22.5 1 0  22.75 1 0  23 1 0  23.25 1 0  23.5 1 0  23.75 1 0  24 1 0  24.25 1 0  24.5 1 0  24.75 1 0  25 1 0  0 1.25 0  0.25 1.25 0  0.5 1.25 0  0.75 1.25 0  1 1.25 0  1.25 1.25 0  1.5 1.25 0  1.75 1.25 0  2 1.25 0  2.25 1.25 0  2.5 1.25 0  2.75 1.25 0  3 1.25 0  3.25 1.25 0  3.5 1.25 0  3.75 1.25 0  4 1.25 0  4.25 1.25 0  4.5 1.25 0  4.75 1.25 0  5 1.25 0  5.25 1.25 0  5.5 1.25 0  5.75 1.25 0  6 1.25 0  6.25 1.25 0  6.5 1.25 0  6.75 1.25 0  7 1.25 0  7.25 1.25 0  7.5 1.25 0  7.75 1.25 0  8 1.25 0  8.25 1.25 0  8.5 1.25 0  8.75 1.25 0  9 1.25 0  9.25 1.25 0  9.5 1.25 0  9.75 1.25 0  10 1.25 0  10.25 1.25 0  10.5 1.25 0  10.75 1.25 0  11 1.25 0  11.25 1.25 0  11.5 1.25 0  11.75 1.25 0  12 1.25 0  12.25 1.25 0  12.5 1.25 0  12.75 1.25 0  13 1.25 0  13.25 1.25 0  13.5 1.25 0  13.75 1.25 0  14 1.25 0  14.25 1.25 0  14.5 1.25 0  14.75 1.25 0  15 1.25 0  15.25 1.25 0  15.5 1.25 0  15.75 1.25 0  16 1.25 0  16.25 1.25 0  16.5 1.25 0  16.75 1.25 0  17 1.25 0  17.25 1.25 0  17.5 1.25 0  17.75 1.25 0  18 1.25 0  18.25 1.25 0  18.5 1.25 0  18.75 1.25 0  19 1.25 0  19.25 1.25 0  19.5 1.25 0  19.75 1.25 0  20 1.25 0  20.25 1.25 0  20.5 1.25 0  20.75 1.25 0  21 1.25 0  21.25 1.25 0  21.5 1.25 0  21.75 1.25 0  22 1.25 0  22.25 1.25 0  22.5 1.25 0  22.75 1.25 0  23 1.25 0  23.25 1.25 0  23.5 1.25 0  23.75 1.25 0  24 1.25 0  24.25 1.25 0  24.5 1.25 0  24.75 1.25 0  25 1.25 0  0 1.5 0  0.25 1.5 0  0.5 1.5 0  0.75 1.5 0  1 1.5 0  1.25 1.5 0  1.5 1.5 0  1.75 1.5 0  2 1.5 0  2.25 1.5 0  2.5 1.5 0  2.75 1.5 0  3 1.5 0  3.25 1.5 0  3.5 1.5 0  3.75 1.5 0  4 1.5 0  4.25 1.5 0  4.5 1.5 0  4.75 1.5 0  5 1.5 0  5.25 1.5 0  5.5 1.5 0  5.75 1.5 0  6 1.5 0  6.25 1.5 0  6.5 1.5 0  6.75 1.5 0  7 1.5 0  7.25 1.5 0  7.5 1.5 0  7.75 1.5 0  8 1.5 0  8.25 1.5 0  8.5 1.5 0  8.75 1.5 0  9 1.5 0  9.25 1.5 0  9.5 1.5 0  9.75 1.5 0  10 1.5 0  10.25 1.5 0  10.5 1.5 0  10.75 1.5 0  11 1.5 0  11.25 1.5 0  11.5 1.5 0  11.75 1.5 0  12 1.5 0  12.25 1.5 0  12.5 1.5 0  12.75 1.5 0  13 1.5 0  13.25 1.5 0  13.5 1.5 0  13.75 1.5 0  14 1.5 0  14.25 1.5 0  14.5 1.5 0  14.75 1.5 0  15 1.5 0  15.25 1.5 0  15.5 1.5 0  15.75 1.5 0  16 1.5 0  16.25 1.5 0  16.5 1.5 0  16.75 1.5 0  17 1.5 0  17.25 1.5 0  17.5 1.5 0  17.75 1.5 0  18 1.5 0  18.25 1.5 0  18.5 1.5 0  18.75 1.5 0  19 1.5 0  19.25 1.5 0  19.5 1.5 0  19.75 1.5 0  20 1.5 0  20.25 1.5 0  20.5 1.5 0  20.75 1.5 0  21 1.5 0  21.25 1.5 0  21.5 1.5 0  21.75 1.5 0  22 1.5 0  22.25 1.5 0  22.5 1.5 0  22.75 1.5 0  23 1.5 0  23.25 1.5 0  23.5 1.5 0  23.75 1.5 0  24 1.5 0  24.25 1.5 0  24.5 1.5 0  24.75 1.5 0  25 1.5 0  0 1.75 0  0.25 1.75 0  0.5 1.75 0  0.75 1.75 0  1 1.75 0  1.25 1.75 0  1.5 1.75 0  1.75 1.75 0  2 1.75 0  2.25 1.75 0  2.5 1.75 0  2.75 1.75 0  3 1.75 0  3.25 1.75 0  3.5 1.75 0  3.75 1.75 0  4 1.75 0  4.25 1.75 0  4.5 1.75 0  4.75 1.75 0  5 1.75 0  5.25 1.75 0  5.5 1.75 0  5.75 1.75 0  6 1.75 0  6.25 1.75 0  6.5 1.75 0  6.75 1.75 0  7 1.75 0  7.25 1.75 0  7.5 1.75 0  7.75 1.75 0  8 1.75 0  8.25 1.75 0  8.5 1.75 0  8.75 1.75 0  9 1.75 0  9.25 1.75 0  9.5 1.75 0  9.75 1.75 0  10 1.75 0  10.25 1.75 0  10.5 1.75 0  10.75 1.75 0  11 1.75 0  11.25 1.75 0  11.5 1.75 0  11.75 1.75 0  12 1.75 0  12.25 1.75 0  12.5 1.75 0  12.75 1.75 0  13 1.75 0  13.25 1.75 0  13.5 1.75 0  13.75 1.75 0  14 1.75 0  14.25 1.75 0  14.5 1.75 0  14.75 1.75 0  15 1.75 0  15.25 1.75 0  15.5 1.75 0  15.75 1.75 0  16 1.75 0  16.25 1.75 0  16.5 1.75 0  16.75 1.75 0  17 1.75 0  17.25 1.75 0  17.5 1.75 0  17.75 1.75 0  18 1.75 0  18.25 1.75 0  18.5 1.75 0  18.75 1.75 0  19 1.75 0  19.25 1.75 0  19.5 1.75 0  19.75 1.75 0  20 1.75 0  20.25 1.75 0  20.5 1.75 0  20.75 1.75 0  21 1.75 0  21.25 1.75 0  21.5 1.75 0  21.75 1.75 0  22 1.75 0  22.25 1.75 0  22.5 1.75 0  22.75 1.75 0  23 1.75 0  23.25 1.75 0  23.5 1.75 0  23.75 1.75 0  24 1.75 0  24.25 1.75 0  24.5 1.75 0  24.75 1.75 0  25 1.75 0  0 2 0  0.25 2 0  0.5 2 0  0.75 2 0  1 2 0  1.25 2 0  1.5 2 0  1.75 2 0  2 2 0  2.25 2 0  2.5 2 0  2.75 2 0  3 2 0  3.25 2 0  3.5 2 0  3.75 2 0  4 2 0  4.25 2 0  4.5 2 0  4.75 2 0  5 2 0  5.25 2 0  5.5 2 0  5.75 2 0  6 2 0  6.25 2 0  6.5 2 0  6.75 2 0  7 2 0  7.25 2 0  7.5 2 0  7.75 2 0  8 2 0  8.25 2 0  8.5 2 0  8.75 2 0  9 2 0  9.25 2 0  9.5 2 0  9.75 2 0  10 2 0  10.25 2 0  10.5 2 0  10.75 2 0  11 2 0  11.25 2 0 
[...]
<PointData  Scalars="f_23"> 
<DataArray  type="Float64"  Name="f_23"  format="ascii">7.5688706431151997e-01  7.5335297248341526e-01  7.4562489854102931e-01  7.3304833810288217e-01  7.1512735701211061e-01  6.9132095318590281e-01  6.6101730992119723e-01  6.2356571608131761e-01  5.7834349451590383e-01  5.2485428671820766e-01  4.6285309573439071e-01  3.9248475787098708e-01  3.1441043076868341e-01  2.2988661238421626e-01  1.4076037131386115e-01  4.9358769396434986e-02  -4.1720808327887472e-02  -1.2987970737856394e-01  -2.1278518216970022e-01  -2.8857576747924457e-01  -3.5596817970936562e-01  -4.1426182335872974e-01  -4.6326406291497441e-01  -5.0317206769093081e-01  -5.3444547195041414e-01  -5.5769416150635309e-01  -5.7359369405561933e-01  -5.8283131692918833e-01  -5.8607960694554873e-01  -5.8399195747302957e-01  -5.7721335297972920e-01  -5.6640005969183849e-01  -5.5224236125196546e-01  -5.3548501700099727e-01  -5.1694074432906933e-01  -4.9749289521120726e-01  -4.7808477573641445e-01  -4.5969478526835589e-01  -4.4329857876826312e-01  -4.2982146499751306e-01  -4.2008586685023624e-01  -4.1475959006431307e-01  -4.1431075713826343e-01  -4.1897463622261544e-01  -4.2873640286742254e-01  -4.4333227815580345e-01  -4.6226959034214726e-01  -4.8486419392181163e-01  -5.1029152402284950e-01  -5.3764569277166063e-01  -5.6599987608182978e-01  -5.9446115444838066e-01  -6.2221406161157933e-01  -6.4854911344983801e-01  -6.7287501413694495e-01  -6.9471546879448665e-01  -7.1369311031960414e-01  -7.2950377633502383e-01  -7.4188432343925048e-01  -7.5057659872156879e-01  -7.5528943918628810e-01  -7.5565997501748394e-01  -7.5121538346622263e-01  -7.4133687526870684e-01  -7.2522939833244882e-01  -7.0190358343893866e-01  -6.7018088784806873e-01  -6.2873812182183864e-01  -5.7621159941207423e-01  -5.1137989942538842e-01  -4.3343141648206363e-01  -3.4229287998564567e-01  -2.3894953419088871e-01  -1.2564420587352595e-01  -5.8346478750316679e-03  1.1615348225738384e-01  2.3572423633596915e-01  3.4869054029694085e-01  4.5182696189239357e-01  5.4315220772897943e-01  6.2191848550921958e-01  6.8838733455854018e-01  7.4351095426723313e-01  7.8861999293084140e-01  8.2517518594208006e-01  8.5459960766952403e-01  8.7818309336139821e-01  8.9704027713746481e-01  9.1210322716966141e-01  9.2413349102846354e-01  9.3374308673577622e-01  9.4141801066056507e-01  9.4754074218913564e-01  9.5241009903523366e-01  9.5625789526783722e-01  9.5926243267568523e-01  9.6155910768760355e-01  9.6324845107113499e-01  9.6440171574849021e-01  9.6506326965817091e-01  9.6524534244765681e-01  7.5118040730669078e-01  7.4842952284520248e-01  7.4081572521272943e-01  7.2816648846747389e-01  7.1009576449106171e-01  6.8609414937892033e-01  6.5556573819586139e-01  6.1787468388446654e-01  5.7241593724797346e-01  5.1871416512145618e-01  4.5654773184587144e-01  3.8608472015889184e-01  3.0800596921115503e-01  2.2358046424066025e-01  1.3465789150192259e-01  4.3557325768318375e-02  -4.7140917642247815e-02  -1.3486110266953583e-01  -2.1729539994852343e-01  -2.9260585524423294e-01  -3.5952894802175867e-01  -4.1737892196810267e-01  -4.6597284253682641e-01  -5.0551288565919483e-01  -5.3645981518015973e-01  -5.5942173042400356e-01  -5.7507042291055377e-01  -5.8408820013223961e-01  -5.8714215382229828e-01  -5.8488009765119342e-01  -5.7794164512906887e-01  -5.6697810089152689e-01  -5.5267533935496427e-01  -5.3577438439206848e-01  -5.1708501233958848e-01  -4.9748855142184423e-01  -4.7792731265608795e-01  -4.5937980409697049e-01  -4.4282290546127900e-01  -4.2918419763253784e-01  -4.1928926967655927e-01  -4.1380976018191401e-01  -4.1321800799374114e-01  -4.1775356011186143e-01  -4.2740558905155157e-01  -4.4191367818945865e-01  -4.6078754659682991e-01  -4.8334418703213711e-01  -5.0875874595488246e-01  -5.3612359872963733e-01  -5.6450888991064629e-01  -5.9301768426231716e-01  -6.2082992594486452e-01  -6.4723139983999534e-01  -6.7162631603119594e-01  -6.9353439396355276e-01  -7.1257493444750564e-01  -7.2844112692953811e-01  -7.4086781185839212e-01  -7.4959536065639842e-01  -7.5433158815998691e-01  -7.5471301565896098e-01  -7.5026667086958831e-01  -7.4037424234513849e-01  -7.2424209696596797e-01  -7.0088367616469127e-01  -6.6912514419234637e-01  -6.2765026295844883e-01  -5.7510436226116834e-01  -5.1027592329115989e-01  -4.3236166314027896e-01  -3.4129166281674939e-01  -2.3804664108471241e-01  -1.2485671111964204e-01  -5.1623658792587556e-03  1.1672605082789782e-01  2.3622017525271582e-01  3.4913120090707500e-01  4.5222577106750833e-01  5.4351365188444878e-01  6.2224102528756253e-01  6.8866750574114000e-01  7.4374649132716331e-01  7.8881121990074676e-01  8.2532498500774920e-01  8.5471264781555378e-01  8.7826489791446882e-01  8.9709645203616462e-01  9.1213895405833878e-01  9.2415326548030774e-01  9.3375063547603854e-01  9.4141631917829915e-01  9.4753213941293291e-01  9.5239636434195030e-01  9.5624036957251868e-01  9.5924213067283437e-01  9.6153685226935692e-01  9.6322512401375260e-01  9.6437902225795025e-01  9.6504681890345578e-01  9.6525871271773855e-01  7.3674079195312214e-01  7.3409419578547275e-01  7.2638867034442445e-01  7.1345582930223683e-01  6.9494780903051701e-01  6.7038648132014522e-01  6.3920643988709924e-01  6.0080856741191169e-01  5.5463484592950796e-01  5.0026854445518942e-01  4.3755633915187958e-01  3.6673881014369097e-01  2.8856435165836247e-01  2.0435316470911288e-01  1.1597892646288969e-01  2.5750629843075020e-02  -6.3795580080516237e-02  -1.5015483771560423e-01  -2.3110422697193694e-01  -3.0489070330931961e-01  -3.7032403956557952e-01  -4.2677324308895714e-01  -4.7408967008632735e-01  -5.1249115958389813e-01  -5.4243942755313179e-01  -5.6453328461161933e-01  -5.7942903240748078e-01  -5.8779045257068807e-01  -5.9026530728019155e-01  -5.8748272554602066e-01  -5.8006516644895223e-01  -5.6864884258391535e-01  -5.5390693856145512e-01  -5.3657043793072434e-01  -5.1744192252654775e-01  -4.9739851295059834e-01  -4.7738135258256992e-01  -4.5837074681347983e-01  -4.4134810631270044e-01  -4.2724788495220789e-01  -4.1690435664119302e-01  -4.1099902517589687e-01  -4.1001458037400218e-01  -4.1420067700091356e-01  -4.2355560931507991e-01  -4.3782636508795603e-01  -4.5652767723920862e-01  -4.7897862207238595e-01  -5.0435318582353061e-01  -5.3173933410376062e-01  -5.6019988932048337e-01  -5.8882832761353820e-01  -6.1679359076751683e-01  -6.4336996387462098e-01  -6.6795049533380191e-01  -6.9004472659897853e-01  -7.0926316643129328e-01  -7.2529176028710307e-01  -7.3785962114484416e-01  -7.4670275534169350e-01  -7.5152577768370743e-01  -7.5196301176871583e-01  -7.4754023417342097e-01  -7.3763894532973506e-01  -7.2146672890503638e-01  -6.9804023987890962e-01  -6.6619165541905623e-01  -6.2461440546870950e-01  -5.7196771927445245e-01  -5.0705799158941756e-01  -4.2910228956932678e-01  -3.3805025378395986e-01  -2.3489693391266148e-01  -1.2187729174540150e-01  -2.4250333747520836e-03  1.1916667097366317e-01  2.3833272541076875e-01  3.5090827095915395e-01  4.5368022305388167e-01  5.4467276930729136e-01  6.2314047302233055e-01  6.8934624791951571e-01  7.4424304786488282e-01  7.8916121354266877e-01  8.2555976582642732e-01  8.5485874205091628e-01  8.7834403502935265e-01  8.9712595285307539e-01  9.1213230549831570e-01  9.2412075559963369e-01  9.3369996782181053e-01  9.4135316237974020e-01  9.4746059461102383e-01  9.5231935071359131e-01  9.5615993979368341e-01  9.5915973804963273e-01  9.6145360613920827e-01  9.6314209994365019e-01  9.6429773667676877e-01  9.6496986338835811e-01  9.6518881117042188e-01  7.1246715387577142e-01  7.0974131356566905e-01  7.0175502374310050e-01  6.8831535148063516e-01  6.6908899123562715e-01  6.4362848900335190e-01  6.1141205204999860e-01  5.7189980715992039e-01  5.2461145469758874e-01  4.6922684877692955e-01  4.0570420659296735e-01  3.3440111014719243e-01  2.5617336528509377e-01  1.7242057210427325e-01  8.5050498713190079e-02  -3.6496070014209081e-03  -9.1220528620124725e-02  -1.7527687558239641e-01  -2.5373669959962136e-01  -3.2498632983652942e-01  -3.8795445696878861e-01  -4.4209758345066891e-01  -4.8732042239189832e-01  -5.2386351957027666e-01  -5.5218743087468980e-01  -5.7287348452210185e-01  -5.8655087603290301e-01  -5.9385182069883458e-01  -5.9539163462872835e-01  -5.9176840254647800e-01  -5.8357630914963365e-01  -5.7142687063863962e-01  -5.5597266275485713e-01  -5.3792851373971351e-01  -5.1808558488471046e-01  -4.9731449345808110e-01  -4.7655482583987746e-01  -4.5679009219746802e-01  -4.3900923552325033e-01  -4.2415789085842009e-01  -4.1308428336587977e-01  -4.0648562441563546e-01  -4.0486098024202971e-01  -4.0847593151801648e-01  -4.1734312237909010e-01  -4.3122121370806921e-01  -4.4963292137514360e-01  -4.7190079505640709e-01  -4.9719729502780463e-01  -5.2460382453025667e-01  -5.5317208179128674e-01  -5.8198080233093941e-01  -6.1018184491348992e-01  -6.3703146419781898e-01  -6.6190503023708669e-01  -6.8429579158355691e-01  -7.0380002485459736e-01  -7.2009181332761241e-01  -7.3289077982169681e-01  -7.4192560694590681e-01  -7.4689545444328431e-01  -7.4743078485909131e-01  -7.4305496448430763e-01  -7.3314862239345169e-01  -7.1692041800900885e-01  -6.9339081984275863e-01  -6.6139972781453082e-01  -6.1965362048010320e-01  -5.6683139942895056e-01  -5.0176626779179667e-01  -4.2370804387011096e-01  -3.3264130582179974e-01  -2.2959175012392252e-01  -1.1681274332646836e-01  2.2624975318893590e-03  1.2336231649733942e-01  2.4196008878116787e-01  3.5393739259077134e-01  4.5612529056876128e-01  5.4658209753391296e-01  6.2458317124301233e-01  6.9039959178648480e-01  7.4498288980905114e-01  7.8965603575552967e-01  8.2586787454151267e-01  8.5502767887058462e-01  8.7841130418604918e-01  8.9712037719686466e-01  9.1207556475644880e-01  9.2402885575427063e-01  9.3358452431527494e-01  9.4122246111252028e-01  9.4732043868465809e-01  9.5217372154010738e-01  9.5601150889751252e-01  9.5901026740882378e-01  9.6130427332694734e-01  9.6299377527933561e-01  9.6415119502673974e-01  9.6482573573131825e-01  9.6504658387621922e-01  6.7719485287419423e-01  6.7432592019649396e-01  6.6592240284614890e-01  6.5178528854864959e-01  6.3160045144093235e-01  6.0496086393989723e-01  5.7140628642186297e-01  5.3048185438418916e-01  4.8181752290678148e-01  4.2522713450160055e-01  3.6081943901678892e-01  2.8910480461555660e-01  2.1107323590045524e-01  1.2821597189726203e-01  4.2468900585512594e-02  -4.3927013755835395e-02  -1.2862915645366516e-01  -2.0942000207664058e-01  -2.8440808074841584e-01  -3.5216297572255373e-01  -4.1176607856129466e-01  -4.6278334179261782e-01  -5.0518354889999217e-01  -5.3923145533028738e-01  -5.6538132777615246e-01  -5.8418771834407679e-01  -5.9624126347719875e-01  -6.0213044522908332e-01  -6.0242619543353781e-01  -5.9768440990328497e-01  -5.8846096841555517e-01  -5.7533396109199786e-01  -5.5892805468872897e-01  -5.3993616174681169e-01  -5.1913390193746456e-01  -4.9738298149865529e-01  -4.7562075741401250e-01  -4.5483495157116693e-01  -4.3602457781387316e-01  -4.2015028670496490e-01  -4.0807908113813546e-01  -4.0052935523592553e-01  -3.9802231792856285e-01  -4.0084517641682565e-01  -4.0903020773992504e-01  -4.2235226451563329e-01  -4.4034546600269636e-01  -4.6233786085574541e-01  -4.8750079499629967e-01  -5.1490781136690833e-01  -5.4359653943308417e-01  -5.7262661135404791e-01  -6.0112738841341329e-01  -6.2833107586112769e-01  -6.5358919885292444e-01  -6.7637279979852460e-01  -6.9625856262375729e-01  -7.1290408005266459e-01  -7.2601565505930399e-01  -7.3531159428574611e-01  -7.4048325369737167e-01  -7.4115550128569574e-01  -7.3684811004803441e-01  -7.2694020102757295e-01  -7.1064151190113245e-01  -6.8697719073248997e-01  -6.5479697017018978e-01  -6.1282426158425340e-01  -5.5976390145285793e-01  -4.9448502257291505e-01  -4.1628217811358009e-01  -3.2518880137139661e-01  -2.2227488685649846e-01  -1.0982227031784951e-01  8.7333421950051560e-03  1.2914804070989974e-01  2.4694852187696481e-01  3.5808284770718601e-01  4.5944659358297280e-01  5.4914858717316839e-01  6.2649510628309513e-01  6.9176920971947209e-01  7.4591993631849096e-01  7.9025886471078655e-01  8.2621939540948730e-01  8.5519470023814581e-01  8.7844584309672491e-01  8.9706185325825749e-01  9.1195319377844319e-01  9.2386387432336214e-01  9.3339208772537363e-01  9.4101317963466691e-01  9.4710157896862168e-01  9.5195012507531218e-01  9.5578628469296767e-01  9.5878531129447242e-01  9.6108065559211575e-01  9.6277201976298266e-01  9.6393143723200669e-01  9.6460768777079076e-01  9.6482921729011739e-01  6.2958762868110141e-01  6.2655488363667389e-01  6.1764888596920497e-01  6.0268257493822386e-01  5.8137583570977169e-01  5.5337993245621098e-01  5.1831962251902997e-01  4.7585407938276086e-01  4.2575652320043977e-01  3.6800874433669445e-01  3.0290058614619897e-01  2.3111722421022349e-01  1.5379150511255757e-01  7.2498495651792477e-02  -1.0822113254834927e-02  -9.4013087412611385e-02  -1.7489298589278890e-01  -2.5145693865993507e-01  -3.2204302693818870e-01  -3.8543372190909186e-01  -4.4088208078588748e-01  -4.8807255910863062e-01  -5.2703905826353958e-01  -5.5806586058663488e-01  -5.8159264533594146e-01  -5.9813696978368469e-01  -6.0823998692705084e-01  -6.1243560428267529e-01  -6.1124007581367223e-01  -6.0515761222760744e-01  -5.9469721948113807e-01  -5.8039600222514209e-01  -5.6284424925911225e-01  -5.4270767931676489e-01  -5.2074240071792888e-01  -4.9779866089104507e-01  -4.7481053960804581e-01  -4.5277043339415096e-01  -4.3268932324981885e-01  -4.1554603681678637e-01  -4.0223053864832042e-01  -3.9348732202233205e-01  -3.8986507834669798e-01  -3.9167809375469159e-01  -3.9898353445402768e-01  -4.1157719334367882e-01  -4.2900851809610946e-01  -4.5061385172895285e-01  -4.7556482916378529e-01  -5.0292697352340709e-01  -5.3172208932253417e-01  -5.6098748013895638e-01  -5.8982559519972266e-01  -6.1743937476970867e-01  -6.4315091444967920e-01  -6.6640350426164108e-01  -6.8674905734454783e-01  -7.0382408947091057e-01  -7.1731770423542385e-01  -7.2693468518447091e-01  -7.3235613740261607e-01  -7.3319953435574969e-01  -7.2897986790690461e-01  -7.1907419539395878e-01  -7.0269351860752727e-01  -6.7886881865211435e-01  -6.4646213448498668e-01  -6.0421805266030615e-01  -5.5087379714372331e-01  -4.8534331703206929e-01  -4.0697691042953094e-01  -3.1586882005176731e-01  -2.1314405198647735e-01  -1.0111953066881157e-01  1.6766612666200897e-02  1.3630605812205443e-01  2.5309324012037143e-01  3.6316042976471186e-01  4.6348471887623988e-01  5.5223849229122401e-01  6.2876653233079116e-01  6.9336623138112052e-01  7.4698256879946623e-01  7.9091185460987323e-01  8.2656724765483658e-01  8.5532105047914486e-01  8.7841531625994440e-01  8.9692300885280274e-01  9.1174167825049279e-01  9.2360531490314179e-01  9.3310453617301847e-01  9.4070907131277426e-01  9.4678924984745350e-01  9.5163495867440462e-01  9.5547156477343054e-01  9.5847284757548390e-01  9.6077123548423859e-01  9.6246572144015696e-01  9.6362781991642676e-01  9.6430586419823461e-01  9.6452785197505342e-01  5.6828500566968487e-01  5.6509759208330113e-01  5.5566215220214921e-01  5.3982020876772896e-01  5.1734471154915596e-01  4.8796789564832566e-01  4.5142623764518031e-01  4.0752251766065561e-01  3.5620283838530697e-01  2.9764245827216457e-01  2.3232884604395487e-01  1.6112498918503890e-01  8.5293319356789618e-02  6.4635876202236596e-03  -7.3461797039953133e-02  -1.5245567721267059e-01  -2.2854192126349235e-01  -2.9996416600577219e-01  -3.6531437985115989e-01  -4.2360053093474215e-01  -4.7425017181994888e-01  -5.1706218290349493e-01  -5.5212738126842820e-01  -5.7973941235540327e-01  -6.0031266945667716e-01  -6.1431729221186182e-01  -6.2223518644433973e-01  -6.2453670689256258e-01  -6.2167523056122465e-01  -6.1409580626525717e-01  -6.0225375690752347e-01  -5.8663904023574609e-01  -5.6780208661809572e-01  -5.4637671131023202e-01  -5.2309570794334337e-01  -4.9879512415813526e-01  -4.7440422509157781e-01  -4.5091983707721361e-01  -4.2936596413433159e-01  -4.1074188352805524e-01  -3.9596384424613057e-01  -3.8580658831534936e-01  -3.8085101538751998e-01  -3.8144353581806489e-01  -3.8767131253396397e-01  -3.9935598242203885e-01  -4.1606673576901559e-01  -4.3715183081341452e-01  -4.6178572060733603e-01  -4.8902709810227390e-01  -5.1788164974732898e-01  -5.4736257831235291e-01  -5.7654233333914839e-01  -6.0459048737711307e-01  -6.3079497210676261e-01  -6.5456635928925622e-01  -6.7542695034529854e-01  -6.9298774086842929e-01  -7.0691676439292128e-01  -7.1690206924730038e-01  -7.2261197875972272e-01  -7.2365471587549679e-01  -7.1953931173504293e-01  -7.0964030161606906e-01  -6.9317033247267790e-01  -6.6916764877697532e-01  -6.3650937135966112e-01  -5.9396571479204607e-01  -5.4031266905880138e-01  -4.7451726480657580e-01  -3.9599511123557435e-01  -3.0491078933474497e-01  -2.0245175785628750e-01  -9.0973086039648918e-02  2.6087676446245094e-02  1.4456703163133300e-01  2.6014090297486531e-01  3.6894100049045958e-01  4.6803943800773634e-01  5.5568170642450210e-01  6.3125593454171580e-01  6.9507451647409868e-01  7.4807609492937888e-01  7.9153782811105533e-01  8.2684823098067162e-01  8.5535452769784825e-01  8.7827611546254913e-01  8.9666693733486258e-01  9.1140934506113369e-01  9.2322560500507200e-01  9.3269752242923343e-01  9.4028833351127039e-01  9.4636365851274296e-01  9.5121001375642178e-01  9.5505038192793734e-01  9.5805687366819614e-01  9.6036075885950489e-01  9.6206022597873242e-01  9.6322621874741854e-01  9.6390664598528264e-01  9.6412919137653652e-01  4.9219684826817239e-01  4.8889288796151126e-01  4.7897247769116014e-01  4.6232228360328598e-01  4.3878870047321505e-01  4.0820861891832821e-01  3.7045587982474781e-01  3.2550178597639978e-01  2.7348552684886129e-01  2.1478659279169598e-01  1.5008698344637228e-01  8.0407879222783113e-02  7.1056287605742140e-03  -6.8182774979600777e-02  -1.4364400541642408e-01  -2.1742857679596192e-01  -2.8780192308542041e-01  -3.5327738983233148e-01  -4.1270720552918200e-01  -4.6531958389650979e-01  -5.1070416407741581e-01  -5.4875884673314224e-01  -5.7961594065043742e-01  -6.0356464056776860e-01  -6.2098241469888038e-01  -6.3228243516845573e-01  -6.3787951833293421e-01  -6.3817388138340259e-01  -6.3355029470157220e-01  -6.2438946084233671e-01  -6.1108817367722990e-01  -5.9408463039556558e-01  -5.7388501107114387e-01  -5.5108713416962896e-01  -5.2639683292118389e-01  -5.0063295294260690e-01  -4.7471779253499830e-01  -4.4965148122618676e-01  -4.2647105217127868e-01  -4.0619738767321673e-01  -3.8977525168929211e-01  -3.7801279598769405e-01  -3.7152703518880575e-01  -3.7070095761905203e-01  -3.7565652115714865e-01  -3.8624613479597947e-01  -4.0206354475211475e-01  -4.2247333623872291e-01  -4.4665647116518770e-01  -4.7366746683638222e-01  -5.0249725630555142e-01  -5.3213488268496301e-01  -5.6162133727534502e-01  -5.9009014949982641e-01  -6.1679150144175010e-01  -6.4109912144236580e-01  -6.6250140521449918e-01  -6.8057968451352846e-01  -6.9497716897228867e-01  -7.0536196392759798e-01  -7.1138703841589024e-01  -7.1264947800263234e-01  -7.0865119677100996e-01  -6.9876385304992028e-01  -6.8220230653366931e-01  -6.5801373433753119e-01  -6.2509332710186827e-01  -5.8224142255118350e-01  -5.2827881243043540e-01  -4.6223288121051348e-01  -3.8359223088982397e-01  -2.9259845210895025e-01  -1.9050530677223257e-01  -7.9705387933913616e-02  3.6370170469380736e-02  1.5361302825928005e-01  2.6779334470347221e-01  3.7515470569197124e-01  4.7287403718054244e-01  5.5927583692705185e-01  6.3379356043452095e-01  6.9675348206573451e-01  7.4908483638131607e-01  7.9204168285922238e-01  8.2698386153180503e-01  8.5522987588220500e-01  8.7797342691154034e-01  8.9624703897479230e-01  9.1091605434548872e-01  9.2268969420665070e-01  9.3214001648564748e-01  9.3972311986535784e-01  9.4579948255866786e-01  9.5065196678129460e-01  9.5450098940641404e-01  9.5751687837479194e-01  9.5982967542964703e-01  9.6153672654943867e-01  9.6270839642480577e-01  9.6339219694930311e-01  9.6361555849014691e-01  4.0090702629211777e-01  3.9755150255067973e-01 