<?xml version="1.0"?>
<VTKFile type="UnstructuredGrid"  version="0.1"  >
<UnstructuredGrid>
<Piece  NumberOfPoints="10201" NumberOfCells="20000">
<Points>
<DataArray  type="Float64"  NumberOfComponents="3"  format="ascii">0 0 0  0.25 0 0  0.5 0 0  0.75 0 0  1 0 0  1.25 0 0  1.5 0 0  1.75 0 0  2 0 0  2.25 0 0  2.5 0 0  2.75 0 0  3 0 0  3.25 0 0  3.5 0 0  3.75 0 0  4 0 0  4.25 0 0  4.5 0 0  4.75 0 0  5 0 0  5.25 0 0  5.5 0 0  5.75 0 0  6 0 0  6.25 0 0  6.5 0 0  6.75 0 0  7 0 0  7.25 0 0  7.5 0 0  7.75 0 0  8 0 0  8.25 0 0  8.5 0 0  8.75 0 0  9 0 0  9.25 0 0  9.5 0 0  9.75 0 0  10 0 0  10.25 0 0  10.5 0 0  10.75 0 0  11 0 0  11.25 0 0  11.5 0 0  11.75 0 0  12 0 0  12.25 0 0  12.5 0 0  12.75 0 0  13 0 0  13.25 0 0  13.5 0 0  13.75 0 0  14 0 0  14.25 0 0  14.5 0 0  14.75 0 0  15 0 0  15.25 0 0  15.5 0 0  15.75 0 0  16 0 0  16.25 0 0  16.5 0 0  16.75 0 0  17 0 0  17.25 0 0  17.5 0 0  17.75 0 0  18 0 0  18.25 0 0  18.5 0 0  18.75 0 0  19 0 0  19.25 0 0  19.5 0 0  19.75 0 0  20 0 0  20.25 0 0  20.5 0 0  20.75 0 0  21 0 0  21.25 0 0  21.5 0 0  21.75 0 0  22 0 0  22.25 0 0  22.5 0 0  22.75 0 0  23 0 0  23.25 0 0  23.5 0 0  23.75 0 0  24 0 0  24.25 0 0  24.5 0 0  24.75 0 0  25 0 0  0 0.25 0  0.25 0.25 0  0.5 0.25 0  0.75 0.25 0  1 0.25 0  1.25 0.25 0  1.5 0.25 0  1.75 0.25 0  2 0.25 0  2.25 0.25 0  2.5 0.25 0  2.75 0.25 0  3 0.25 0  3.25 0.25 0  3.5 0.25 0  3.75 0.25 0  4 0.25 0  4.25 0.25 0  4.5 0.25 0  4.75 0.25 0  5 0.25 0  5.25 0.25 0  5.5 0.25 0  5.75 0.25 0  6 0.25 0  6.25 0.25 0  6.5 0.25 0  6.75 0.25 0  7 0.25 0  7.25 0.25 0  7.5 0.25 0  7.75 0.25 0  8 0.25 0  8.25 0.25 0  8.5 0.25 0  8.75 0.25 0  9 0.25 0  9.25 0.25 0  9.5 0.25 0  9.75 0.25 0  10 0.25 0  10.25 0.25 0  10.5 0.25 0  10.75 0.25 0  11 0.25 0  11.25 0.25 0  11.5 0.25 0  11.75 0.25 0  12 0.25 0  12.25 0.25 0  12.5 0.25 0  12.75 0.25 0  13 0.25 0  13.25 0.25 0  13.5 0.25 0  13.75 0.25 0  14 0.25 0  14.25 0.25 0  14.5 0.25 0  14.75 0.25 0  15 0.25 0  15.25 0.25 0  15.5 0.25 0  15.75 0.25 0  16 0.25 0  16.25 0.25 0  16.5 0.25 0  16.75 0.25 0  17 0.25 0  17.25 0.25 0  17.5 0.25 0  17.75 0.25 0  18 0.25 0  18.25 0.25 0  18.5 0.25 0  18.75 0.25 0  19 0.25 0  19.25 0.25 0  19.5 0.25 0  19.75 0.25 0  20 0.25 0  20.25 0.25 0  20.5 0.25 0  20.75 0.25 0  21 0.25 0  21.25 0.25 0  21.5 0.25 0  21.75 0.25 0  22 0.25 0  22.25 0.25 0  22.5 0.25 0  22.75 0.25 0  23 0.25 0  23.25 0.25 0  23.5 0.25 0  23.75 0.25 0  24 0.25 0  24.25 0.25 0  24.5 0.25 0  24.75 0.25 0  25 0.25 0  0 0.5 0  0.25 0.5 0  0.5 0.5 0  0.75 0.5 0  1 0.5 0  1.25 0.5 0  1.5 0.5 0  1.75 0.5 0  2 0.5 0  2.25 0.5 0  2.5 0.5 0  2.75 0.5 0  3 0.5 0  3.25 0.5 0  3.5 0.5 0  3.75 0.5 0  4 0.5 0  4.25 0.5 0  4.5 0.5 0  4.75 0.5 0  5 0.5 0  5.25 0.5 0  5.5 0.5 0  5.75 0.5 0  6 0.5 0  6.25 0.5 0  6.5 0.5 0  6.75 0.5 0  7 0.5 0  7.25 0.5 0  7.5 0.5 0  7.75 0.5 0  8 0.5 0  8.25 0.5 0  8.5 0.5 0  8.75 0.5 0  9 0.5 0  9.25 0.5 0  9.5 0.5 0  9.75 0.5 0  10 0.5 0  10.25 0.5 0  10.5 0.5 0  10.75 0.5 0  11 0.5 0  11.25 0.5 0  11.5 0.5 0  11.75 0.5 0  12 0.5 0  12.25 0.5 0  12.5 0.5 0  12.75 0.5 0  13 0.5 0  13.25 0.5 0  13.5 0.5 0  13.75 0.5 0  14 0.5 0  14.25 0.5 0  14.5 0.5 0  14.75 0.5 0  15 0.5 0  15.25 0.5 0  15.5 0.5 0  15.75 0.5 0  16 0.5 0  16.25 0.5 0  16.5 0.5 0  16.75 0.5 0  17 0.5 0  17.25 0.5 0  17.5 0.5 0  17.75 0.5 0  18 0.5 0  18.25 0.5 0  18.5 0.5 0  18.75 0.5 0  19 0.5 0  19.25 0.5 0  19.5 0.5 0  19.75 0.5 0  20 0.5 0  20.25 0.5 0  20.5 0.5 0  20.75 0.5 0  21 0.5 0  21.25 0.5 0  21.5 0.5 0  21.75 0.5 0  22 0.5 0  22.25 0.5 0  22.5 0.5 0  22.75 0.5 0  23 0.5 0  23.25 0.5 0  23.5 0.5 0  23.75 0.5 0  24 0.5 0  24.25 0.5 0  24.5 0.5 0  24.75 0.5 0  25 0.5 0  0 0.75 0  0.25 0.75 0  0.5 0.75 0  0.75 0.75 0  1 0.75 0  1.25 0.75 0  1.5 0.75 0  1.75 0.75 0  2 0.75 0  2.25 0.75 0  2.5 0.75 0  2.75 0.75 0  3 0.75 0  3.25 0.75 0  3.5 0.75 0  3.75 0.75 0  4 0.75 0  4.25 0.75 0  4.5 0.75 0  4.75 0.75 0  5 0.75 0  5.25 0.75 0  5.5 0.75 0  5.75 0.75 0  6 0.75 0  6.25 0.75 0  6.5 0.75 0  6.75 0.75 0  7 0.75 0  7.25 0.75 0  7.5 0.75 0  7.75 0.75 0  8 0.75 0  8.25 0.75 0  8.5 0.75 0  8.75 0.75 0  9 0.75 0  9.25 0.75 0  9.5 0.75 0  9.75 0.75 0  10 0.75 0  10.25 0.75 0  10.5 0.75 0  10.75 0.75 0  11 0.75 0  11.25 0.75 0  11.5 0.75 0  11.75 0.75 0  12 0.75 0  12.25 0.75 0  12.5 0.75 0  12.75 0.75 0  13 0.75 0  13.25 0.75 0  13.5 0.75 0  13.75 0.75 0  14 0.75 0  14.25 0.75 0  14.5 0.75 0  14.75 0.75 0  15 0.75 0  15.25 0.75 0  15.5 0.75 0  15.75 0.75 0  16 0.75 0  16.25 0.75 0  16.5 0.75 0  16.75 0.75 0  17 0.75 0  17.25 0.75 0  17.5 0.75 0  17.75 0.75 0  18 0.75 0  18.25 0.75 0  18.5 0.75 0  18.75 0.75 0  19 0.75 0  19.25 0.75 0  19.5 0.75 0  19.75 0.75 0  20 0.75 0  20.25 0.75 0  20.5 0.75 0  20.75 0.75 0  21 0.75 0  21.25 0.75 0  21.5 0.75 0  21.75 0.75 0  22 0.75 0  22.25 0.75 0  22.5 0.75 0  22.75 0.75 0  23 0.75 0  23.25 0.75 0  23.5 0.75 0  23.75 0.75 0  24 0.75 0  24.25 0.75 0  24.5 0.75 0  24.75 0.75 0  25 0.75 0  0 1 0  0.25 1 0  0.5 1 0  0.75 1 0  1 1 0  1.25 1 0  1.5 1 0  1.75 1 0  2 1 0  2.25 1 0  2.5 1 0  2.75 1 0  3 1 0  3.25 1 0  3.5 1 0  3.75 1 0  4 1 0  4.25 1 0  4.5 1 0  4.75 1 0  5 1 0  5.25 1 0  5.5 1 0  5.75 1 0  6 1 0  6.25 1 0  6.5 1 0  6.75 1 0  7 1 0  7.25 1 0  7.5 1 0  7.75 1 0  8 1 0  8.25 1 0  8.5 1 0  8.75 1 0  9 1 0  9.25 1 0  9.5 1 0  9.75 1 0  10 1 0  10.25 1 0  10.5 1 0  10.75 1 0  11 1 0  11.25 1 0  11.5 1 0  11.75 1 0  12 1 0  12.25 1 0  12.5 1 0  12.75 1 0  13 1 0  13.25 1 0  13.5 1 0  13.75 1 0  14 1 0  14.25 1 0  14.5 1 0  14.75 1 0  15 1 0  15.25 1 0  15.5 1 0  15.75 1 0  16 1 0  16.25 1 0  16.5 1 0  16.75 1 0  17 1 0  17.25 1 0  17.5 1 0  17.75 1 0  18 1 0  18.25 1 0  18.5 1 0  18.75 1 0  19 1 0  19.25 1 0  19.5 1 0  19.75 1 0  20 1 0  20.25 1 0  20.5 1 0  20.75 1 0  21 1 0  21.25 1 0  21.5 1 0  21.75 1 0  22 1 0  22.25 1 0  22.5 1 0  22.75 1 0  23 1 0  23.25 1 0  23.5 1 0  23.75 1 0  24 1 0  24.25 1 0  24.5 1 0  24.75 1 0  25 1 0  0 1.25 0  0.25 1.25 0  0.5 1.25 0  0.75 1.25 0  1 1.25 0  1.25 1.25 0  1.5 1.25 0  1.75 1.25 0  2 1.25 0  2.25 1.25 0  2.5 1.25 0  2.75 1.25 0  3 1.25 0  3.25 1.25 0  3.5 1.25 0  3.75 1.25 0  4 1.25 0  4.25 1.25 0  4.5 1.25 0  4.75 1.25 0  5 1.25 0  5.25 1.25 0  5.5 1.25 0  5.75 1.25 0  6 1.25 0  6.25 1.25 0  6.5 1.25 0  6.75 1.25 0  7 1.25 0  7.25 1.25 0  7.5 1.25 0  7.75 1.25 0  8 1.25 0  8.25 1.25 0  8.5 1.25 0  8.75 1.25 0  9 1.25 0  9.25 1.25 0  9.5 1.25 0  9.75 1.25 0  10 1.25 0  10.25 1.25 0  10.5 1.25 0  10.75 1.25 0  11 1.25 0  11.25 1.25 0  11.5 1.25 0  11.75 1.25 0  12 1.25 0  12.25 1.25 0  12.5 1.25 0  12.75 1.25 0  13 1.25 0  13.25 1.25 0  13.5 1.25 0  13.75 1.25 0  14 1.25 0  14.25 1.25 0  14.5 1.25 0  14.75 1.25 0  15 1.25 0  15.25 1.25 0  15.5 1.25 0  15.75 1.25 0  16 1.25 0  16.25 1.25 0  16.5 1.25 0  16.75 1.25 0  17 1.25 0  17.25 1.25 0  17.5 1.25 0  17.75 1.25 0  18 1.25 0  18.25 1.25 0  18.5 1.25 0  18.75 1.25 0  19 1.25 0  19.25 1.25 0  19.5 1.25 0  19.75 1.25 0  20 1.25 0  20.25 1.25 0  20.5 1.25 0  20.75 1.25 0  21 1.25 0  21.25 1.25 0  21.5 1.25 0  21.75 1.25 0  22 1.25 0  22.25 1.25 0  22.5 1.25 0  22.75 1.25 0  23 1.25 0  23.25 1.25 0  23.5 1.25 0  23.75 1.25 0  24 1.25 0  24.25 1.25 0  24.5 1.25 0  24.75 1.25 0  25 1.25 0  0 1.5 0  0.25 1.5 0  0.5 1.5 0  0.75 1.5 0  1 1.5 0  1.25 1.5 0  1.5 1.5 0  1.75 1.5 0  2 1.5 0  2.25 1.5 0  2.5 1.5 0  2.75 1.5 0  3 1.5 0  3.25 1.5 0  3.5 1.5 0  3.75 1.5 0  4 1.5 0  4.25 1.5 0  4.5 1.5 0  4.75 1.5 0  5 1.5 0  5.25 1.5 0  5.5 1.5 0  5.75 1.5 0  6 1.5 0  6.25 1.5 0  6.5 1.5 0  6.75 1.5 0  7 1.5 0  7.25 1.5 0  7.5 1.5 0  7.75 1.5 0  8 1.5 0  8.25 1.5 0  8.5 1.5 0  8.75 1.5 0  9 1.5 0  9.25 1.5 0  9.5 1.5 0  9.75 1.5 0  10 1.5 0  10.25 1.5 0  10.5 1.5 0  10.75 1.5 0  11 1.5 0  11.25 1.5 0  11.5 1.5 0  11.75 1.5 0  12 1.5 0  12.25 1.5 0  12.5 1.5 0  12.75 1.5 0  13 1.5 0  13.25 1.5 0  13.5 1.5 0  13.75 1.5 0  14 1.5 0  14.25 1.5 0  14.5 1.5 0  14.75 1.5 0  15 1.5 0  15.25 1.5 0  15.5 1.5 0  15.75 1.5 0  16 1.5 0  16.25 1.5 0  16.5 1.5 0  16.75 1.5 0  17 1.5 0  17.25 1.5 0  17.5 1.5 0  17.75 1.5 0  18 1.5 0  18.25 1.5 0  18.5 1.5 0  18.75 1.5 0  19 1.5 0  19.25 1.5 0  19.5 1.5 0  19.75 1.5 0  20 1.5 0  20.25 1.5 0  20.5 1.5 0  20.75 1.5 0  21 1.5 0  21.25 1.5 0  21.5 1.5 0  21.75 1.5 0  22 1.5 0  22.25 1.5 0  22.5 1.5 0  22.75 1.5 0  23 1.5 0  23.25 1.5 0  23.5 1.5 0  23.75 1.5 0  24 1.5 0  24.25 1.5 0  24.5 1.5 0  24.75 1.5 0  25 1.5 0  0 1.75 0  0.25 1.75 0  0.5 1.75 0  0.75 1.75 0  1 1.75 0  1.25 1.75 0  1.5 1.75 0  1.75 1.75 0  2 1.75 0  2.25 1.75 0  2.5 1.75 0  2.75 1.75 0  3 1.75 0  3.25 1.75 0  3.5 1.75 0  3.75 1.75 0  4 1.75 0  4.25 1.75 0  4.5 1.75 0  4.75 1.75 0  5 1.75 0  5.25 1.75 0  5.5 1.75 0  5.75 1.75 0  6 1.75 0  6.25 1.75 0  6.5 1.75 0  6.75 1.75 0  7 1.75 0  7.25 1.75 0  7.5 1.75 0  7.75 1.75 0  8 1.75 0  8.25 1.75 0  8.5 1.75 0  8.75 1.75 0  9 1.75 0  9.25 1.75 0  9.5 1.75 0  9.75 1.75 0  10 1.75 0  10.25 1.75 0  10.5 1.75 0  10.75 1.75 0  11 1.75 0  11.25 1.75 0  11.5 1.75 0  11.75 1.75 0  12 1.75 0  12.25 1.75 0  12.5 1.75 0  12.75 1.75 0  13 1.75 0  13.25 1.75 0  13.5 1.75 0  13.75 1.75 0  14 1.75 0  14.25 1.75 0  14.5 1.75 0  14.75 1.75 0  15 1.75 0  15.25 1.75 0  15.5 1.75 0  15.75 1.75 0  16 1.75 0  16.25 1.75 0  16.5 1.75 0  16.75 1.75 0  17 1.75 0  17.25 1.75 0  17.5 1.75 0  17.75 1.75 0  18 1.75 0  18.25 1.75 0  18.5 1.75 0  18.75 1.75 0  19 1.75 0  19.25 1.75 0  19.5 1.75 0  19.75 1.75 0  20 1.75 0  20.25 1.75 0  20.5 1.75 0  20.75 1.75 0  21 1.75 0  21.25 1.75 0  21.5 1.75 0  21.75 1.75 0  22 1.75 0  22.25 1.75 0  22.5 1.75 0  22.75 1.75 0  23 1.75 0  23.25 1.75 0  23.5 1.75 0  23.75 1.75 0  24 1.75 0  24.25 1.75 0  24.5 1.75 0  24.75 1.75 0  25 1.75 0  0 2 0  0.25 2 0  0.5 2 0  0.75 2 0  1 2 0  1.25 2 0  1.5 2 0  1.75 2 0  2 2 0  2.25 2 0  2.5 2 0  2.75 2 0  3 2 0  3.25 2 0  3.5 2 0  3.75 2 0  4 2 0  4.25 2 0  4.5 2 0  4.75 2 0  5 2 0  5.25 2 0  5.5 2 0  5.75 2 0  6 2 0  6.25 2 0  6.5 2 0  6.75 2 0  7 2 0  7.25 2 0  7.5 2 0  7.75 2 0  8 2 0  8.25 2 0  8.5 2 0  8.75 2 0  9 2 0  9.25 2 0  9.5 2 0  9.75 2 0  10 2 0  10.25 2 0  10.5 2 0  10.75 2 0  11 2 0  11.25 2 0 
[...]
<PointData  Scalars="f_23"> 
<DataArray  type="Float64"  Name="f_23"  format="ascii">6.7728819156149689e-01  6.7402069559083366e-01  6.6680021351087682e-01  6.5512702988137006e-01  6.3869630016746504e-01  6.1721987991069960e-01  5.9040307273794257e-01  5.5796608359304856e-01  5.1968568273580518e-01  4.7544988014635486e-01  4.2532010549774218e-01  3.6959293206892663e-01  3.0885016559823830e-01  2.4398425656618000e-01  1.7618735038205535e-01  1.0689791394577217e-01  3.7708103707976767e-02  -2.9754820684024276e-02  -9.3952488926232189e-02  -1.5354295445939203e-01  -2.0745506566635857e-01  -2.5492236073767410e-01  -2.9547908277139912e-01  -3.2892810376544812e-01  -3.5529356310446403e-01  -3.7477026334523716e-01  -3.8767877578292159e-01  -3.9443135894754539e-01  -3.9551028911005481e-01  -3.9145755434110668e-01  -3.8287314628322960e-01  -3.7041826400154271e-01  -3.5481946006144088e-01  -3.3686999869248185e-01  -3.1742539433907024e-01  -2.9739118680484600e-01  -2.7770235894687229e-01  -2.5929520756934288e-01  -2.4307368355401460e-01  -2.2987299812455245e-01  -2.2042353735399695e-01  -2.1531788686130821e-01  -2.1498323339156730e-01  -2.1966082407896986e-01  -2.2939371451548338e-01  -2.4402376786268781e-01  -2.6319866476898235e-01  -2.8638933673020489e-01  -3.1291755333365068e-01  -3.4199232818617059e-01  -3.7275251886671001e-01  -4.0431181943312061e-01  -4.3580166744317650e-01  -4.6640768382850173e-01  -4.9539616727934255e-01  -5.2212865243073414e-01  -5.4606422798509735e-01  -5.6675080230005970e-01  -5.8380753105311745e-01  -5.9690110553868081e-01  -6.0571863757699740e-01  -6.0993967572149022e-01  -6.0920969164026373e-01  -6.0311740611695708e-01  -5.9117873689585332e-01  -5.7283099633985235e-01  -5.4744212884353338e-01  -5.1434087145222707e-01  -4.7287397401439479e-01  -4.2249482125302962e-01  -3.6288253974369900e-01  -2.9408105666427470e-01  -2.1663456581081408e-01  -1.3168361380807472e-01  -4.0981829098569518e-02  5.3195541407423802e-02  1.4825217730742998e-01  2.4154525032998270e-01  3.3067166676059195e-01  4.1369955775573702e-01  4.8929976281472232e-01  5.5676668131570961e-01  6.1594901306693084e-01  6.6712725911885662e-01  7.1087515463494566e-01  7.4793230667463917e-01  7.7910254141942470e-01  8.0518183264927323e-01  8.2691304397663501e-01  8.4496175735747692e-01  8.5990699117489089e-01  8.7224143772930807e-01  8.8237712335330565e-01  8.9065363923978014e-01  8.9734710431811793e-01  9.0267875619338678e-01  9.0682254056391842e-01  9.0991129153294670e-01  9.1204092628473654e-01  9.1327070445938530e-01  9.1361100239037307e-01  6.7232963643102950e-01  6.6977778131582566e-01  6.6269060645463318e-01  6.5099869173778313e-01  6.3449560829063090e-01  6.1292099839242908e-01  5.8599270012278359e-01  5.5344077162906680e-01  5.1505215536112980e-01  4.7072583401489798e-01  4.2053454857567990e-01  3.6478554300732435e-01  3.0406940434059926e-01  2.3928424297005568e-01  1.7162384815392784e-01  1.0252401885679341e-01  3.3570334387044772e-02  -3.3619437364789388e-02  -9.7518008558973981e-02  -1.5679475949874974e-01  -2.1038898413696494e-01  -2.5754300672554153e-01  -2.9779778507457122e-01  -3.3096073905933876e-01  -3.5705852994036397e-01  -3.7628674874411822e-01  -3.8896539061815821e-01  -3.9550515846497475e-01  -3.9638615369359881e-01  -3.9214788268344353e-01  -3.8338780528097538e-01  -3.7076474184891872e-01  -3.5500317550432764e-01  -3.3689472541465720e-01  -3.1729376216362393e-01  -2.9710522066374240e-01  -2.7726401486949243e-01  -2.5870686623867517e-01  -2.4233856970315901e-01  -2.2899550885203157e-01  -2.1940948101353405e-01  -2.1417465001364633e-01  -2.1371989933113170e-01  -2.1828825849159419e-01  -2.2792461319779975e-01  -2.4247263545997205e-01  -2.6158167350180711e-01  -2.8472401136355302e-01  -3.1122224951685529e-01  -3.4028551329599177e-01  -3.7105191575772689e-01  -4.0263351654728613e-01  -4.3415931755477882e-01  -4.6481190093954411e-01  -4.9385419138147474e-01  -5.2064429904358367e-01  -5.4463809051584522e-01  -5.6538064332645066e-01  -5.8248878881877686e-01  -5.9562745198557399e-01  -6.0448254736364104e-01  -6.0873299405874426e-01  -6.0802421560147180e-01  -6.0194551372119121e-01  -5.9001410503655594e-01  -5.7166943520945368e-01  -5.4628251768172720e-01  -5.1318610055519220e-01  -4.7173168432784202e-01  -4.2137761524378514e-01  -3.6180728482429675e-01  -2.9306701436301424e-01  -2.1570042792259894e-01  -1.3084405509009844e-01  -4.0244643344359593e-02  5.3830626544000844e-02  1.4879249778647496e-01  2.4200246588521815e-01  3.3105848166302471e-01  4.1402716204320272e-01  4.8957666493750496e-01  5.5699883396743743e-01  6.1614065698679976e-01  6.6728186948690182e-01  7.1099611231237470e-01  7.4802319559306218e-01  7.7916715205131337e-01  8.0522400892932122e-01  8.2693649100422384e-01  8.4496988021204744e-01  8.5990279249438017e-01  8.7222747447260485e-01  8.8235551078419017e-01  8.9062608815122113e-01  8.9731498231751450e-01  9.0264317655777060e-01  9.0678451788388514e-01  9.0987213346726015e-01  9.1200358504505097e-01  9.1324538130356159e-01  9.1364085555506380e-01  6.5992106361538372e-01  6.5749649711524871e-01  6.5040579709058199e-01  6.3858366956651214e-01  6.2185832681342146e-01  5.9999632998080499e-01  5.7273882446429791e-01  5.3984034764558919e-01  5.0111573571454060e-01  4.5649560935650385e-01  4.0608690551616261e-01  3.5023109322127394e-01  2.8954941382423988e-01  2.2496295582809908e-01  1.5767707021726449e-01  8.9125315054150167e-02  2.0876968652524853e-02  -4.5478454606623878e-02  -1.0844983953951408e-01  -1.6674566828169807e-01  -2.1934245742593780e-01  -2.6551416606366374e-01  -3.0482565138060963e-01  -3.3709989730472095e-01  -3.6237140102623333e-01  -3.8083720700620743e-01  -3.9281403009787519e-01  -3.9870619391420004e-01  -3.9898575898603295e-01  -3.9418369427541200e-01  -3.8488931182503650e-01  -3.7175430679847737e-01  -3.5549747283042343e-01  -3.3690639744703821e-01  -3.1683313165909222e-01  -2.9618191167755498e-01  -2.7588836597896987e-01  -2.5689105967856779e-01  -2.4009744972202077e-01  -2.2634711415319125e-01  -2.1637535711837805e-01  -2.1078002545929972e-01  -2.0999379763297232e-01  -2.1426357742085408e-01  -2.2363814542657129e-01  -2.3796494854418290e-01  -2.5689673328585777e-01  -2.7990843768885815e-01  -3.0632414240881789e-01  -3.3535287273916775e-01  -3.6613077604935185e-01  -3.9776599715921984e-01  -4.2938183012877335e-01  -4.6015373410862392e-01  -4.8933662788756016e-01  -5.1628032493566967e-01  -5.4043266201831996e-01  -5.6133140683576821e-01  -5.7858711581277655e-01  -5.9185965357287562e-01  -6.0083116414461035e-01  -6.0517810356979373e-01  -6.0454474976647155e-01  -5.9852062216516222e-01  -5.8662462772393209e-01  -5.6829954989853892e-01  -5.4292159250574545e-01  -5.0983069780705714e-01  -4.6838752332158878e-01  -4.1806112575278104e-01  -3.5854622113558471e-01  -2.8989954960003511e-01  -2.1267232130292463e-01  -1.2800393674727539e-01  -3.7638099876937038e-02  5.6166924726463029e-02  1.5083523278486360e-01  2.4374368116968087e-01  3.3250496187270273e-01  4.1519775871732284e-01  4.9049855993613789e-01  5.5770370665853153e-01  6.1666141260021845e-01  6.6765022008745956e-01  7.1124102525941424e-01  7.4817007454338269e-01  7.7923756508787578e-01  8.0523578493190495e-01  8.2690403653229227e-01  8.4490460641643472e-01  8.5981357616897935e-01  8.7212110598581905e-01  8.8223710379799980e-01  8.9049944289074523e-01  8.9718290828420555e-01  9.0250779688723048e-01  9.0664760571711644e-01  9.0973558711278002e-01  9.1187022772837822e-01  9.1312005599079449e-01  9.1352859169005074e-01  6.3929806975734682e-01  6.3685033040730210e-01  6.2963047178821729e-01  6.1755177505096048e-01  6.0045485134226884e-01  5.7813041109958241e-01  5.5035056263005611e-01  5.1690768007061394e-01  4.7766173029433545e-01  4.3259502969304775e-01  3.8187031473800559e-01  3.2588459258033980e-01  2.6530840331334266e-01  2.0109917720044848e-01  1.3447959528294764e-01  6.6877744852405233e-02  -1.6563545842583879e-04  -6.5109013825752071e-02  -1.2652191939107424e-01  -1.8317782013287409e-01  -2.3411459681125027e-01  -2.7865787083602156e-01  -3.1641101845091213e-01  -3.4722155247997560e-01  -3.7113566267425291e-01  -3.8835160261864637e-01  -3.9917962988399885e-01  -4.0401269886600272e-01  -4.0330898451441755e-01  -3.9758497637449730e-01  -3.8741636031852228e-01  -3.7344307747982147e-01  -3.5637468662921223e-01  -3.3699238234003515e-01  -3.1614470201008549e-01  -2.9473504036113585e-01  -2.7370045898911949e-01  -2.5398271688051527e-01  -2.3649368417149919e-01  -2.2207809043808691e-01  -2.1147677514057689e-01  -2.0529330087415182e-01  -2.0396616476917551e-01  -2.0774817048592964e-01  -2.1669401907465796e-01  -2.3065690893590124e-01  -2.4929479680260569e-01  -2.7208674014512879e-01  -2.9835919457728238e-01  -3.2732118486149697e-01  -3.5810602171399925e-01  -3.8981601205065186e-01  -4.2156580476072580e-01  -4.5251994195580225e-01  -4.8192093806579139e-01  -5.0910561142601973e-01  -5.3350907946873150e-01  -5.5465739177284934e-01  -5.7215091225857995e-01  -5.8564115658983940e-01  -5.9480391319139236e-01  -5.9931132262685483e-01  -5.9880540532592508e-01  -5.9287553814882665e-01  -5.8104274510695808e-01  -5.6275443493812016e-01  -5.3739426500979504e-01  -5.0431275154379018e-01  -4.6288433059187195e-01  -4.1259466393188643e-01  -3.5315678193130212e-01  -2.8464540798261417e-01  -2.0762652021997410e-01  -1.2324783526180472e-01  -3.3252232245022544e-02  6.0113093145755782e-02  1.5429238011470614e-01  2.4668836951182566e-01  3.3494084265021284e-01  4.1715243259086227e-01  4.9201744646448708e-01  5.5884276564687008e-01  6.1748034107227823e-01  6.6820712571281926e-01  7.1158891041088035e-01  7.4835498379490617e-01  7.7929801055369285e-01  8.0520301702600583e-01  8.2680278888327985e-01  8.4475404343815175e-01  8.5962826886540600e-01  8.7191193847335646e-01  8.8201206681686051e-01  8.9026430507111298e-01  8.9694177697266231e-01  9.0226359323424410e-01  9.0640248560146586e-01  9.0949133072527255e-01  9.1162854411217153e-01  9.1288242619697513e-01  9.1329436829665389e-01  6.0975821716317580e-01  6.0724023562376439e-01  5.9980747037911875e-01  5.8736717532932492e-01  5.6977390732414701e-01  5.4684695829854935e-01  5.1839896518398432e-01  4.8427401402101783e-01  4.4439424739504257e-01  3.9881261542225827e-01  3.4776686823078518e-01  2.9172701930743772e-01  2.3142636737658084e-01  1.6786600810931498e-01  1.0228563627946681e-01  3.6099475685979883e-02  -2.9195894558836623e-02  -9.2127756327871901e-02  -1.5134958206646215e-01  -2.0572273125419829e-01  -2.5436655544860437e-01  -2.9667406373512001e-01  -3.3229783596111467e-01  -3.6111569392965442e-01  -3.8318707710842231e-01  -3.9870973922609937e-01  -4.0798351864569543e-01  -4.1138471473535870e-01  -4.0935178453652965e-01  -4.0238096887989849e-01  -3.9102907410068555e-01  -3.7591986568048341e-01  -3.5775027341813226e-01  -3.3729281943970357e-01  -3.1539134943497754e-01  -2.9294823731263631e-01  -2.7090262391616021e-01  -2.5020071831828372e-01  -2.3176044862665665e-01  -2.1643353771613519e-01  -2.0496826475463778e-01  -1.9797580881359120e-01  -1.9590237558945484e-01  -1.9900857325553437e-01  -2.0735696436009154e-01  -2.2080845748072345e-01  -2.3902811073334984e-01  -2.6150076654580084e-01  -2.8755648068906992e-01  -3.1640482837110617e-01  -3.4717595695698161e-01  -3.7896500686258905e-01  -4.1087564033887702e-01  -4.4205823980638831e-01  -4.7173898843250417e-01  -4.9923738226424785e-01  -5.2397139582869590e-01  -5.4545112073022672e-01  -5.6326289849774591e-01  -5.7704663562598391e-01  -5.8646917148847366e-01  -5.9119645500187901e-01  -5.9086711667919711e-01  -5.8507002804202157e-01  -5.7332878217634575e-01  -5.5509675570172967e-01  -5.2976739702658893e-01  -4.9670523914429798e-01  -4.5530311140389679e-01  -4.0506900891606434e-01  -3.4574082963921104e-01  -2.7741804157515010e-01  -2.0068738153905799e-01  -1.1670886618533660e-01  -2.7225318617724571e-02  6.5530343379685205e-02  1.5902962117148176e-01  2.5071113594619221e-01  3.3825288183213853e-01  4.1979176471827012e-01  4.9404791162335060e-01  5.6034366001681934e-01  6.1853655059598567e-01  6.6890131345734127e-01  7.1199633177501020e-01  7.4854076060295260e-01  7.7931630859296241e-01  8.0509748195275022e-01  8.2660767992842710e-01  8.4449565450569952e-01  8.5932637533025313e-01  8.7158112580832703e-01  8.8166287842916236e-01  8.8990419682327393e-01  8.9657589318234943e-01  9.0189539042372291e-01  9.0603422854193549e-01  9.0912446527458446e-01  9.1126389662938967e-01  9.1252007813580771e-01  9.1293303399563397e-01  5.7053342985192257e-01  5.6793128213003252e-01  5.6023804291800716e-01  5.4736825911239595e-01  5.2919909987213654e-01  5.0558772195914647e-01  4.7639923305182841e-01  4.4154405246521322e-01  4.0102289586182827e-01  3.5497608338849074e-01  3.0373162783370367e-01  2.4784428447603651e-01  1.8811643106948492e-01  1.2559237730489964e-01  6.1521185217782402e-02  -2.7109149451332950e-03  -6.5670363515846555e-02  -1.2597442873950579e-01  -1.8238146823941409e-01  -2.3385928325838096e-01  -2.7962340616778930e-01  -3.1914445974305189e-01  -3.5213002517625624e-01  -3.7849014455211194e-01  -3.9829632884394245e-01  -4.1174242728705901e-01  -4.1911303374531234e-01  -4.2076223364904913e-01  -4.1710302578628433e-01  -4.0860590739551939e-01  -3.9580387617816726e-01  -3.7930038908357339e-01  -3.5977656029948718e-01  -3.3799407094222789e-01  -3.1479091715365221e-01  -2.9106822031242041e-01  -2.6776774374908591e-01  -2.4584126932937017e-01  -2.2621427745440423e-01  -2.0974716522372272e-01  -1.9719738626639929e-01  -1.8918545937263589e-01  -1.8616700895960780e-01  -1.8841218501838508e-01  -1.9599322354582638e-01  -2.0878064658350459e-01  -2.2644856289854931e-01  -2.4848947254430184e-01  -2.7423863449252417e-01  -3.0290727369820547e-01  -3.3362274063474689e-01  -3.6547247011077771e-01  -3.9754761911767122e-01  -4.2898195834643793e-01  -4.5898211483443097e-01  -4.8684651020458730e-01  -5.1197198363833030e-01  -5.3384871959475755e-01  -5.5204537654976127e-01  -5.6618706769026883e-01  -5.7592910439169676e-01  -5.8092935069006058e-01  -5.8082189101784898e-01  -5.7519471550837198e-01  -5.6357444230171427e-01  -5.4542177289840188e-01  -5.2014228445694199e-01  -4.8711790868316018e-01  -4.4576428982928296e-01  -3.9561706923145090e-01  -3.3644483919287993e-01  -2.6837748588857263e-01  -1.9202708508043495e-01  -1.0856837174262203e-01  -1.9743453219750341e-02  7.2233186533460711e-02  1.6486762621075937e-01  2.5564373780112642e-01  3.4228756929399567e-01  4.2297901861074938e-01  4.9647047340130440e-01  5.6210339840185486e-01  6.1974196699551709e-01  6.6965766198314414e-01  7.1239908817799613e-01  7.4867222711864867e-01  7.7924464482924305e-01  8.0487733456816524e-01  8.2628169125828066e-01  8.4409632345218533e-01  8.5887793573232263e-01  8.7110125949927097e-01  8.8116418452014011e-01  8.8939540223852387e-01  8.9606282297103279e-01  9.0138172941672834e-01  9.0552210461297977e-01  9.0861487154702170e-01  9.1075694892052983e-01  9.1201509518125945e-01  9.1242850860365055e-01  5.2085364911776255e-01  5.1817219361170341e-01  5.1020652845540593e-01  4.9688870660848028e-01  4.7812887146518129e-01  4.5383347068102042e-01  4.2393311799683447e-01  3.8841881892818286e-01  3.4738418386754694e-01  3.0106963791963104e-01  2.4990271789687030e-01  1.9452694450690367e-01  1.3581133892007094e-01  7.4834234950363690e-02  1.2838948159166485e-02  -4.8835467632848267e-02  -1.0883924977704551e-01  -1.6589950628093245e-01  -2.1889638269734493e-01  -2.6691686079541271e-01  -3.0928086994309012e-01  -3.4554065853380433e-01  -3.7545933739804727e-01  -3.9897707807357352e-01  -4.1617358125450021e-01  -4.2723381876533928e-01  -4.3242162331027284e-01  -4.3206321631663264e-01  -4.2654065930383234e-01  -4.1629362811457643e-01  -4.0182681484059035e-01  -3.8371959331595035e-01  -3.6263431463214346e-01  -3.3931975893993427e-01  -3.1460690561958465e-01  -2.8939529112194889e-01  -2.6462968400443493e-01  -2.4126836977147523e-01  -2.2024567233863365e-01  -2.0243213951395905e-01  -1.8859592980926881e-01  -1.7936841858303312e-01  -1.7521615138254290e-01  -1.7642035813285067e-01  -1.8306459287695673e-01  -1.9503079588762084e-01  -2.1200409247954841e-01  -2.3348669151277227e-01  -2.5882103412026097e-01  -2.8722168062561249e-01  -3.1781433095659806e-01  -3.4967910153555382e-01  -3.8189412805418232e-01  -4.1357511609170450e-01  -4.4390683132797382e-01  -4.7216365219816381e-01  -4.9771790510836417e-01  -5.2003635886172228e-01  -5.3866661033457897e-01  -5.5321594913989125e-01  -5.6332564215613234e-01  -5.6864358258301928e-01  -5.6879813482300112e-01  -5.6337600836732526e-01  -5.5190727926153171e-01  -5.3386129553091655e-01  -5.0865801955835233e-01  -4.7569997943925657e-01  -4.3442969033724488e-01  -3.8441511788441118e-01  -3.2546039939430937e-01  -2.5773017881730637e-01  -1.8186484198296723e-01  -9.9054583426770274e-02  -1.1038700230783073e-02  7.9991775436368026e-02  1.7158487409508685e-01  2.6127831683881997e-01  3.4685463564109875e-01  4.2654372862614309e-01  4.9913502996649128e-01  5.6399146627345043e-01  6.2098398716703129e-01  6.7037933247912662e-01  7.1271382781630999e-01  7.4867733945434667e-01  7.7902032799638687e-01  8.0448755369212055e-01  8.2577606225449829e-01  8.4351238787201299e-01  8.5824343422450911e-01  8.7043619135638917e-01  8.8048256380616063e-01  8.8870669542958769e-01  8.9537309205479387e-01  9.0069452002603378e-01  9.0483912004040001e-01  9.0793646713588649e-01  9.1008247493224403e-01  9.1134312378720284e-01  9.1175702429388383e-01  4.6009538922308035e-01  4.5735575680507806e-01  4.4914531047506007e-01  4.3542237777456316e-01  4.1614033948673945e-01  3.9126636752488425e-01  3.6080871640351148e-01  3.2485081189788395e-01  2.8358918408185108e-01  2.3737079885851817e-01  1.8672387501569127e-01  1.3237541853925525e-01  7.5249155108701019e-02  1.6439799918104105e-02  -4.2836367534593849e-02  -1.0130966478235449e-01  -1.5773444638214804e-01  -2.1096393038060426e-01  -2.6001110818739265e-01  -3.0408789433422095e-01  -3.4261978955828321e-01  -3.7523841939136504e-01  -4.0175796442679040e-01  -4.2214307816722402e-01  -4.3647555382412051e-01  -4.4492540161014077e-01  -4.4772987551534149e-01  -4.4518190498516647e-01  -4.3762763444782499e-01  -4.2547142658162673e-01  -4.0918571024543815e-01  -3.8932241218824032e-01  -3.6652241644752059e-01  -3.4151961543537512e-01  -3.1513672998756248e-01  -2.8827119542438057e-01  -2.6187091939715162e-01  -2.3690134823063497e-01  -2.1430667125140421e-01  -1.9496881296317775e-01  -1.7966793636307546e-01  -1.6904757147414259e-01  -1.6358647258168282e-01  -1.6357827681766671e-01  -1.6911930899965452e-01  -1.8010459247787317e-01  -1.9623219545268281e-01  -2.1701620312121081e-01  -2.4180853989047787e-01  -2.6982934508566775e-01  -3.0020460711660313e-01  -3.3200850153456180e-01  -3.6430674597636242e-01  -3.9619668803574298e-01  -4.2684003852249053e-01  -4.5548515092147845e-01  -4.8147727331440254e-01  -5.0425686647860413e-01  -5.2334751417922365e-01  -5.3833591679811776e-01  -5.4884691994219348e-01  -5.5451661428344401e-01  -5.5496647275171285e-01  -5.4978149762267070e-01  -5.3849560383961159e-01  -5.2058801580354697e-01  -4.9549516692043494e-01  -4.6264306720352461e-01  -4.2150462479126294e-01  -3.7168397003584469e-01  -3.1302444050488049e-01  -2.4572823830175217e-01  -1.7046526779351662e-01  -8.8440178285330864e-02  -1.3859563918286997e-03  8.8535584292031261e-02  1.7892169949744702e-01  2.6737162132755182e-01  3.5173124862382910e-01  4.3028567941578105e-01  5.0186446076315161e-01  5.6585293473490117e-01  6.2212803731385036e-01  6.7094977099836628e-01  7.1283953098423958e-01  7.4846821360758620e-01  7.7856643383079971e-01  8.0386027938769655e-01  8.2503038957819774e-01  8.4268955943880841e-01  8.5737358751874437e-01  8.6954072703779028e-01  8.7957615323755356e-01  8.8779891508594144e-01  8.9446971568166944e-01  8.9979851710992598e-01  9.0395141213649333e-01  9.0705648991057475e-01  9.0920859024318557e-01  9.1047292944055835e-01  9.1088762250562505e-01  3.8798535243093935e-01  3.8522368856669342e-01  3.