<?xml version="1.0"?>
<VTKFile type="UnstructuredGrid"  version="0.1"  >
<UnstructuredGrid>
<Piece  NumberOfPoints="10201" NumberOfCells="20000">
<Points>
<DataArray  type="Float64"  NumberOfComponents="3"  format="ascii">0 0 0  0.25 0 0  0.5 0 0  0.75 0 0  1 0 0  1.25 0 0  1.5 0 0  1.75 0 0  2 0 0  2.25 0 0  2.5 0 0  2.75 0 0  3 0 0  3.25 0 0  3.5 0 0  3.75 0 0  4 0 0  4.25 0 0  4.5 0 0  4.75 0 0  5 0 0  5.25 0 0  5.5 0 0  5.75 0 0  6 0 0  6.25 0 0  6.5 0 0  6.75 0 0  7 0 0  7.25 0 0  7.5 0 0  7.75 0 0  8 0 0  8.25 0 0  8.5 0 0  8.75 0 0  9 0 0  9.25 0 0  9.5 0 0  9.75 0 0  10 0 0  10.25 0 0  10.5 0 0  10.75 0 0  11 0 0  11.25 0 0  11.5 0 0  11.75 0 0  12 0 0  12.25 0 0  12.5 0 0  12.75 0 0  13 0 0  13.25 0 0  13.5 0 0  13.75 0 0  14 0 0  14.25 0 0  14.5 0 0  14.75 0 0  15 0 0  15.25 0 0  15.5 0 0  15.75 0 0  16 0 0  16.25 0 0  16.5 0 0  16.75 0 0  17 0 0  17.25 0 0  17.5 0 0  17.75 0 0  18 0 0  18.25 0 0  18.5 0 0  18.75 0 0  19 0 0  19.25 0 0  19.5 0 0  19.75 0 0  20 0 0  20.25 0 0  20.5 0 0  20.75 0 0  21 0 0  21.25 0 0  21.5 0 0  21.75 0 0  22 0 0  22.25 0 0  22.5 0 0  22.75 0 0  23 0 0  23.25 0 0  23.5 0 0  23.75 0 0  24 0 0  24.25 0 0  24.5 0 0  24.75 0 0  25 0 0  0 0.25 0  0.25 0.25 0  0.5 0.25 0  0.75 0.25 0  1 0.25 0  1.25 0.25 0  1.5 0.25 0  1.75 0.25 0  2 0.25 0  2.25 0.25 0  2.5 0.25 0  2.75 0.25 0  3 0.25 0  3.25 0.25 0  3.5 0.25 0  3.75 0.25 0  4 0.25 0  4.25 0.25 0  4.5 0.25 0  4.75 0.25 0  5 0.25 0  5.25 0.25 0  5.5 0.25 0  5.75 0.25 0  6 0.25 0  6.25 0.25 0  6.5 0.25 0  6.75 0.25 0  7 0.25 0  7.25 0.25 0  7.5 0.25 0  7.75 0.25 0  8 0.25 0  8.25 0.25 0  8.5 0.25 0  8.75 0.25 0  9 0.25 0  9.25 0.25 0  9.5 0.25 0  9.75 0.25 0  10 0.25 0  10.25 0.25 0  10.5 0.25 0  10.75 0.25 0  11 0.25 0  11.25 0.25 0  11.5 0.25 0  11.75 0.25 0  12 0.25 0  12.25 0.25 0  12.5 0.25 0  12.75 0.25 0  13 0.25 0  13.25 0.25 0  13.5 0.25 0  13.75 0.25 0  14 0.25 0  14.25 0.25 0  14.5 0.25 0  14.75 0.25 0  15 0.25 0  15.25 0.25 0  15.5 0.25 0  15.75 0.25 0  16 0.25 0  16.25 0.25 0  16.5 0.25 0  16.75 0.25 0  17 0.25 0  17.25 0.25 0  17.5 0.25 0  17.75 0.25 0  18 0.25 0  18.25 0.25 0  18.5 0.25 0  18.75 0.25 0  19 0.25 0  19.25 0.25 0  19.5 0.25 0  19.75 0.25 0  20 0.25 0  20.25 0.25 0  20.5 0.25 0  20.75 0.25 0  21 0.25 0  21.25 0.25 0  21.5 0.25 0  21.75 0.25 0  22 0.25 0  22.25 0.25 0  22.5 0.25 0  22.75 0.25 0  23 0.25 0  23.25 0.25 0  23.5 0.25 0  23.75 0.25 0  24 0.25 0  24.25 0.25 0  24.5 0.25 0  24.75 0.25 0  25 0.25 0  0 0.5 0  0.25 0.5 0  0.5 0.5 0  0.75 0.5 0  1 0.5 0  1.25 0.5 0  1.5 0.5 0  1.75 0.5 0  2 0.5 0  2.25 0.5 0  2.5 0.5 0  2.75 0.5 0  3 0.5 0  3.25 0.5 0  3.5 0.5 0  3.75 0.5 0  4 0.5 0  4.25 0.5 0  4.5 0.5 0  4.75 0.5 0  5 0.5 0  5.25 0.5 0  5.5 0.5 0  5.75 0.5 0  6 0.5 0  6.25 0.5 0  6.5 0.5 0  6.75 0.5 0  7 0.5 0  7.25 0.5 0  7.5 0.5 0  7.75 0.5 0  8 0.5 0  8.25 0.5 0  8.5 0.5 0  8.75 0.5 0  9 0.5 0  9.25 0.5 0  9.5 0.5 0  9.75 0.5 0  10 0.5 0  10.25 0.5 0  10.5 0.5 0  10.75 0.5 0  11 0.5 0  11.25 0.5 0  11.5 0.5 0  11.75 0.5 0  12 0.5 0  12.25 0.5 0  12.5 0.5 0  12.75 0.5 0  13 0.5 0  13.25 0.5 0  13.5 0.5 0  13.75 0.5 0  14 0.5 0  14.25 0.5 0  14.5 0.5 0  14.75 0.5 0  15 0.5 0  15.25 0.5 0  15.5 0.5 0  15.75 0.5 0  16 0.5 0  16.25 0.5 0  16.5 0.5 0  16.75 0.5 0  17 0.5 0  17.25 0.5 0  17.5 0.5 0  17.75 0.5 0  18 0.5 0  18.25 0.5 0  18.5 0.5 0  18.75 0.5 0  19 0.5 0  19.25 0.5 0  19.5 0.5 0  19.75 0.5 0  20 0.5 0  20.25 0.5 0  20.5 0.5 0  20.75 0.5 0  21 0.5 0  21.25 0.5 0  21.5 0.5 0  21.75 0.5 0  22 0.5 0  22.25 0.5 0  22.5 0.5 0  22.75 0.5 0  23 0.5 0  23.25 0.5 0  23.5 0.5 0  23.75 0.5 0  24 0.5 0  24.25 0.5 0  24.5 0.5 0  24.75 0.5 0  25 0.5 0  0 0.75 0  0.25 0.75 0  0.5 0.75 0  0.75 0.75 0  1 0.75 0  1.25 0.75 0  1.5 0.75 0  1.75 0.75 0  2 0.75 0  2.25 0.75 0  2.5 0.75 0  2.75 0.75 0  3 0.75 0  3.25 0.75 0  3.5 0.75 0  3.75 0.75 0  4 0.75 0  4.25 0.75 0  4.5 0.75 0  4.75 0.75 0  5 0.75 0  5.25 0.75 0  5.5 0.75 0  5.75 0.75 0  6 0.75 0  6.25 0.75 0  6.5 0.75 0  6.75 0.75 0  7 0.75 0  7.25 0.75 0  7.5 0.75 0  7.75 0.75 0  8 0.75 0  8.25 0.75 0  8.5 0.75 0  8.75 0.75 0  9 0.75 0  9.25 0.75 0  9.5 0.75 0  9.75 0.75 0  10 0.75 0  10.25 0.75 0  10.5 0.75 0  10.75 0.75 0  11 0.75 0  11.25 0.75 0  11.5 0.75 0  11.75 0.75 0  12 0.75 0  12.25 0.75 0  12.5 0.75 0  12.75 0.75 0  13 0.75 0  13.25 0.75 0  13.5 0.75 0  13.75 0.75 0  14 0.75 0  14.25 0.75 0  14.5 0.75 0  14.75 0.75 0  15 0.75 0  15.25 0.75 0  15.5 0.75 0  15.75 0.75 0  16 0.75 0  16.25 0.75 0  16.5 0.75 0  16.75 0.75 0  17 0.75 0  17.25 0.75 0  17.5 0.75 0  17.75 0.75 0  18 0.75 0  18.25 0.75 0  18.5 0.75 0  18.75 0.75 0  19 0.75 0  19.25 0.75 0  19.5 0.75 0  19.75 0.75 0  20 0.75 0  20.25 0.75 0  20.5 0.75 0  20.75 0.75 0  21 0.75 0  21.25 0.75 0  21.5 0.75 0  21.75 0.75 0  22 0.75 0  22.25 0.75 0  22.5 0.75 0  22.75 0.75 0  23 0.75 0  23.25 0.75 0  23.5 0.75 0  23.75 0.75 0  24 0.75 0  24.25 0.75 0  24.5 0.75 0  24.75 0.75 0  25 0.75 0  0 1 0  0.25 1 0  0.5 1 0  0.75 1 0  1 1 0  1.25 1 0  1.5 1 0  1.75 1 0  2 1 0  2.25 1 0  2.5 1 0  2.75 1 0  3 1 0  3.25 1 0  3.5 1 0  3.75 1 0  4 1 0  4.25 1 0  4.5 1 0  4.75 1 0  5 1 0  5.25 1 0  5.5 1 0  5.75 1 0  6 1 0  6.25 1 0  6.5 1 0  6.75 1 0  7 1 0  7.25 1 0  7.5 1 0  7.75 1 0  8 1 0  8.25 1 0  8.5 1 0  8.75 1 0  9 1 0  9.25 1 0  9.5 1 0  9.75 1 0  10 1 0  10.25 1 0  10.5 1 0  10.75 1 0  11 1 0  11.25 1 0  11.5 1 0  11.75 1 0  12 1 0  12.25 1 0  12.5 1 0  12.75 1 0  13 1 0  13.25 1 0  13.5 1 0  13.75 1 0  14 1 0  14.25 1 0  14.5 1 0  14.75 1 0  15 1 0  15.25 1 0  15.5 1 0  15.75 1 0  16 1 0  16.25 1 0  16.5 1 0  16.75 1 0  17 1 0  17.25 1 0  17.5 1 0  17.75 1 0  18 1 0  18.25 1 0  18.5 1 0  18.75 1 0  19 1 0  19.25 1 0  19.5 1 0  19.75 1 0  20 1 0  20.25 1 0  20.5 1 0  20.75 1 0  21 1 0  21.25 1 0  21.5 1 0  21.75 1 0  22 1 0  22.25 1 0  22.5 1 0  22.75 1 0  23 1 0  23.25 1 0  23.5 1 0  23.75 1 0  24 1 0  24.25 1 0  24.5 1 0  24.75 1 0  25 1 0  0 1.25 0  0.25 1.25 0  0.5 1.25 0  0.75 1.25 0  1 1.25 0  1.25 1.25 0  1.5 1.25 0  1.75 1.25 0  2 1.25 0  2.25 1.25 0  2.5 1.25 0  2.75 1.25 0  3 1.25 0  3.25 1.25 0  3.5 1.25 0  3.75 1.25 0  4 1.25 0  4.25 1.25 0  4.5 1.25 0  4.75 1.25 0  5 1.25 0  5.25 1.25 0  5.5 1.25 0  5.75 1.25 0  6 1.25 0  6.25 1.25 0  6.5 1.25 0  6.75 1.25 0  7 1.25 0  7.25 1.25 0  7.5 1.25 0  7.75 1.25 0  8 1.25 0  8.25 1.25 0  8.5 1.25 0  8.75 1.25 0  9 1.25 0  9.25 1.25 0  9.5 1.25 0  9.75 1.25 0  10 1.25 0  10.25 1.25 0  10.5 1.25 0  10.75 1.25 0  11 1.25 0  11.25 1.25 0  11.5 1.25 0  11.75 1.25 0  12 1.25 0  12.25 1.25 0  12.5 1.25 0  12.75 1.25 0  13 1.25 0  13.25 1.25 0  13.5 1.25 0  13.75 1.25 0  14 1.25 0  14.25 1.25 0  14.5 1.25 0  14.75 1.25 0  15 1.25 0  15.25 1.25 0  15.5 1.25 0  15.75 1.25 0  16 1.25 0  16.25 1.25 0  16.5 1.25 0  16.75 1.25 0  17 1.25 0  17.25 1.25 0  17.5 1.25 0  17.75 1.25 0  18 1.25 0  18.25 1.25 0  18.5 1.25 0  18.75 1.25 0  19 1.25 0  19.25 1.25 0  19.5 1.25 0  19.75 1.25 0  20 1.25 0  20.25 1.25 0  20.5 1.25 0  20.75 1.25 0  21 1.25 0  21.25 1.25 0  21.5 1.25 0  21.75 1.25 0  22 1.25 0  22.25 1.25 0  22.5 1.25 0  22.75 1.25 0  23 1.25 0  23.25 1.25 0  23.5 1.25 0  23.75 1.25 0  24 1.25 0  24.25 1.25 0  24.5 1.25 0  24.75 1.25 0  25 1.25 0  0 1.5 0  0.25 1.5 0  0.5 1.5 0  0.75 1.5 0  1 1.5 0  1.25 1.5 0  1.5 1.5 0  1.75 1.5 0  2 1.5 0  2.25 1.5 0  2.5 1.5 0  2.75 1.5 0  3 1.5 0  3.25 1.5 0  3.5 1.5 0  3.75 1.5 0  4 1.5 0  4.25 1.5 0  4.5 1.5 0  4.75 1.5 0  5 1.5 0  5.25 1.5 0  5.5 1.5 0  5.75 1.5 0  6 1.5 0  6.25 1.5 0  6.5 1.5 0  6.75 1.5 0  7 1.5 0  7.25 1.5 0  7.5 1.5 0  7.75 1.5 0  8 1.5 0  8.25 1.5 0  8.5 1.5 0  8.75 1.5 0  9 1.5 0  9.25 1.5 0  9.5 1.5 0  9.75 1.5 0  10 1.5 0  10.25 1.5 0  10.5 1.5 0  10.75 1.5 0  11 1.5 0  11.25 1.5 0  11.5 1.5 0  11.75 1.5 0  12 1.5 0  12.25 1.5 0  12.5 1.5 0  12.75 1.5 0  13 1.5 0  13.25 1.5 0  13.5 1.5 0  13.75 1.5 0  14 1.5 0  14.25 1.5 0  14.5 1.5 0  14.75 1.5 0  15 1.5 0  15.25 1.5 0  15.5 1.5 0  15.75 1.5 0  16 1.5 0  16.25 1.5 0  16.5 1.5 0  16.75 1.5 0  17 1.5 0  17.25 1.5 0  17.5 1.5 0  17.75 1.5 0  18 1.5 0  18.25 1.5 0  18.5 1.5 0  18.75 1.5 0  19 1.5 0  19.25 1.5 0  19.5 1.5 0  19.75 1.5 0  20 1.5 0  20.25 1.5 0  20.5 1.5 0  20.75 1.5 0  21 1.5 0  21.25 1.5 0  21.5 1.5 0  21.75 1.5 0  22 1.5 0  22.25 1.5 0  22.5 1.5 0  22.75 1.5 0  23 1.5 0  23.25 1.5 0  23.5 1.5 0  23.75 1.5 0  24 1.5 0  24.25 1.5 0  24.5 1.5 0  24.75 1.5 0  25 1.5 0  0 1.75 0  0.25 1.75 0  0.5 1.75 0  0.75 1.75 0  1 1.75 0  1.25 1.75 0  1.5 1.75 0  1.75 1.75 0  2 1.75 0  2.25 1.75 0  2.5 1.75 0  2.75 1.75 0  3 1.75 0  3.25 1.75 0  3.5 1.75 0  3.75 1.75 0  4 1.75 0  4.25 1.75 0  4.5 1.75 0  4.75 1.75 0  5 1.75 0  5.25 1.75 0  5.5 1.75 0  5.75 1.75 0  6 1.75 0  6.25 1.75 0  6.5 1.75 0  6.75 1.75 0  7 1.75 0  7.25 1.75 0  7.5 1.75 0  7.75 1.75 0  8 1.75 0  8.25 1.75 0  8.5 1.75 0  8.75 1.75 0  9 1.75 0  9.25 1.75 0  9.5 1.75 0  9.75 1.75 0  10 1.75 0  10.25 1.75 0  10.5 1.75 0  10.75 1.75 0  11 1.75 0  11.25 1.75 0  11.5 1.75 0  11.75 1.75 0  12 1.75 0  12.25 1.75 0  12.5 1.75 0  12.75 1.75 0  13 1.75 0  13.25 1.75 0  13.5 1.75 0  13.75 1.75 0  14 1.75 0  14.25 1.75 0  14.5 1.75 0  14.75 1.75 0  15 1.75 0  15.25 1.75 0  15.5 1.75 0  15.75 1.75 0  16 1.75 0  16.25 1.75 0  16.5 1.75 0  16.75 1.75 0  17 1.75 0  17.25 1.75 0  17.5 1.75 0  17.75 1.75 0  18 1.75 0  18.25 1.75 0  18.5 1.75 0  18.75 1.75 0  19 1.75 0  19.25 1.75 0  19.5 1.75 0  19.75 1.75 0  20 1.75 0  20.25 1.75 0  20.5 1.75 0  20.75 1.75 0  21 1.75 0  21.25 1.75 0  21.5 1.75 0  21.75 1.75 0  22 1.75 0  22.25 1.75 0  22.5 1.75 0  22.75 1.75 0  23 1.75 0  23.25 1.75 0  23.5 1.75 0  23.75 1.75 0  24 1.75 0  24.25 1.75 0  24.5 1.75 0  24.75 1.75 0  25 1.75 0  0 2 0  0.25 2 0  0.5 2 0  0.75 2 0  1 2 0  1.25 2 0  1.5 2 0  1.75 2 0  2 2 0  2.25 2 0  2.5 2 0  2.75 2 0  3 2 0  3.25 2 0  3.5 2 0  3.75 2 0  4 2 0  4.25 2 0  4.5 2 0  4.75 2 0  5 2 0  5.25 2 0  5.5 2 0  5.75 2 0  6 2 0  6.25 2 0  6.5 2 0  6.75 2 0  7 2 0  7.25 2 0  7.5 2 0  7.75 2 0  8 2 0  8.25 2 0  8.5 2 0  8.75 2 0  9 2 0  9.25 2 0  9.5 2 0  9.75 2 0  10 2 0  10.25 2 0  10.5 2 0  10.75 2 0  11 2 0  11.25 2 0 
[...]
<PointData  Scalars="f_23"> 
<DataArray  type="Float64"  Name="f_23"  format="ascii">8.7326619044621534e-01  8.7446320276617351e-01  8.7725289695361497e-01  8.8159353512767324e-01  8.8729458989436538e-01  8.9409199334648215e-01  9.0168656297435101e-01  9.0977279038952485e-01  9.1806193277921710e-01  9.2629909359843488e-01  9.3427389017792728e-01  9.4182503080671365e-01  9.4883979034258004e-01  9.5524974844387212e-01  9.6102422544025212e-01  9.6616269396335641e-01  9.7068716094620555e-01  9.7463519460061110e-01  9.7805397734157684e-01  9.8099553177156729e-01  9.8351310252340685e-01  9.8565857650053923e-01  9.8748077486547103e-01  9.8902443714854649e-01  9.9032972763289806e-01  9.9143211613741788e-01  9.9236251200377079e-01  9.9314755676005539e-01  9.9381000494706095e-01  9.9436914278091182e-01  9.9484121044377283e-01  9.9523980612381291e-01  9.9557625899896252e-01  9.9585996478517702e-01  9.9609868183550243e-01  9.9629878859613252e-01  9.9646550492529051e-01  9.9660308069625403e-01  9.9671495549326217e-01  9.9680389325727015e-01  9.9687209558262013e-01  9.9692129709898336e-01  9.9695284605726731e-01  9.9696777291218597e-01  9.9696684937964974e-01  9.9695064015375523e-01  9.9691954919713610e-01  9.9687386226503316e-01  9.9681378707889301e-01  9.9673949231841963e-01  9.9665114633953011e-01  9.9654895623771445e-01  9.9643320755193787e-01  9.9630430453729735e-01  9.9616281052477995e-01  9.9600948744125450e-01  9.9584533309971079e-01  9.9567161441751206e-01  9.9548989431941559e-01  9.9530204978308212e-01  9.9511027834533272e-01  9.9491709046609278e-01  9.9472528549497485e-01  9.9453790963638466e-01  9.9435819526819558e-01  9.9418948220393355e-01  9.9403512292300999e-01  9.9389837530834169e-01  9.9378228787059208e-01  9.9368958362855508e-01  9.9362254958455232e-01  9.9358293894112881e-01  9.9357189276619295e-01  9.9358988671977666e-01  9.9363670678375571e-01  9.9371145584321363e-01  9.9381259067242478e-01  9.9393798662747024e-01  9.9408502538274823e-01  9.9425069957008083e-01  9.9443172731788476e-01  9.9462466949160844e-01  9.9482604286924203e-01  9.9503242344041098e-01  9.9524053533951018e-01  9.9544732243651068e-01  9.9565000114235058e-01  9.9584609439391336e-01  9.9603344796042736e-01  9.9621023109679741e-01  9.9637492413987261e-01  9.9652629591444342e-01  9.9666337382116277e-01  9.9678540925594983e-01  9.9689184056942781e-01  9.9698225502027227e-01  9.9705634964562040e-01  9.9711388678972268e-01  9.9715462533052690e-01  9.9717814818225625e-01  9.9718323329091341e-01  8.7441779609781067e-01  8.7538261685941277e-01  8.7808580491161892e-01  8.8236573251248185e-01  8.8800706262689622e-01  8.9474179440407564e-01  9.0227164126614390e-01  9.1029299903697436e-01  9.1851899462998343e-01  9.2669625009623569e-01  9.3461546984110877e-01  9.4211603310445524e-01  9.4908552716834160e-01  9.5545555877543920e-01  9.6119526399838495e-01  9.6630378674262629e-01  9.7080271688311470e-01  9.7472916170898349e-01  9.7812983223711580e-01  9.8105629286823814e-01  9.8356135884241847e-01  9.8569652571175215e-01  9.8751026572911338e-01  9.8904701286741270e-01  9.9034666773451696e-01  9.9144447538412983e-01  9.9237115549581656e-01  9.9315319088149268e-01  9.9381320413891838e-01  9.9437037234229420e-01  9.9484084568853648e-01  9.9523814828257728e-01  9.9557354827362665e-01  9.9585639095132417e-01  9.9609439275873168e-01  9.9629389698982329e-01  9.9646009363535581e-01  9.9659720675693131e-01  9.9670865315933166e-01  9.9679717618374997e-01  9.9686495829375998e-01  9.9691371586468280e-01  9.9694477927706637e-01  9.9695916109478266e-01  9.9695761479951006e-01  9.9694068626575560e-01  9.9690875989522110e-01  9.9686210108132522e-01  9.9680089643509062e-01  9.9672529296081136e-01  9.9663543711118741e-01  9.9653151436438792e-01  9.9641378963906757e-01  9.9628264849069370e-01  9.9613863861245022e-01  9.9598251070341504e-01  9.9581525728288578e-01  9.9563814755181756e-01  9.9545275597202554e-01  9.9526098190420698e-01  9.9506505747812346e-01  9.9486754092563789e-01  9.9467129294617385e-01  9.9447943433340413e-01  9.9429528408108858e-01  9.9412227847456924e-01  9.9396387318527235e-01  9.9382343199400902e-01  9.9370410731048742e-01  9.9360871894381708e-01  9.9353963842608661e-01  9.9349868644344985e-01  9.9348705049139430e-01  9.9350522872999347e-01  9.9355300425052229e-01  9.9362945174407458e-01  9.9373297611979217e-01  9.9386138022253412e-01  9.9401195670833720e-01  9.9418159756688074e-01  9.9436691387433196e-01  9.9456435816735322e-01  9.9477034230860517e-01  9.9498134474836397e-01  9.9519400250712431e-01  9.9540518481984752e-01  9.9561204701008188e-01  9.9581206464705840e-01  9.9600304926989713e-01  9.9618314787743290e-01  9.9635082896236660e-01  9.9650485813341616e-01  9.9664426636179582e-01  9.9676831366147778e-01  9.9687645061451879e-01  9.9696827961765511e-01  9.9704351710885442e-01  9.9710195772644505e-01  9.9714344410781364e-01  9.9716786861542506e-01  9.9717537199307715e-01  8.7707820274550607e-01  8.7795682681986742e-01  8.8054534933852857e-01  8.8468901321671134e-01  8.9017179634502475e-01  8.9672933629982710e-01  9.0406976050344801e-01  9.1189668516744149e-01  9.1993003492101688e-01  9.2792213928151634e-01  9.3566802637788571e-01  9.4300997378262785e-01  9.4983716273484153e-01  9.5608170232069711e-01  9.6171238863930220e-01  9.6672742974184089e-01  9.7114710280013550e-01  9.7500700500795379e-01  9.7835227670966540e-01  9.8123294801081329e-01  9.8370039922963959e-01  9.8580482643916734e-01  9.8759355388298098e-01  9.8911002101831913e-01  9.9039328036102403e-01  9.9147786288802164e-01  9.9239389319005078e-01  9.9316736219481705e-01  9.9382048847720961e-01  9.9437211874949361e-01  9.9483813380474551e-01  9.9523183821768646e-01  9.9556432098741665e-01  9.9584478061684722e-01  9.9608081242743363e-01  9.9627865870239318e-01  9.9644342394939034e-01  9.9657925850163098e-01  9.9668951408425954e-01  9.9677687504576962e-01  9.9684346882443498e-01  9.9689095897951274e-01  9.9692062382740376e-01  9.9693342342250169e-01  9.9693005733290074e-01  9.9691101539221083e-01  9.9687662336149152e-01  9.9682708520461716e-01  9.9676252345659111e-01  9.9668301893486733e-01  9.9658865079430092e-01  9.9647953764239261e-01  9.9635588009981146e-01  9.9621800480203615e-01  9.9606640938747071e-01  9.9590180751034374e-01  9.9572517236934777e-01  9.9553777668545607e-01  9.9534122654011137e-01  9.9513748605832764e-01  9.9492888966232074e-01  9.9471813860770242e-01  9.9450827881924064e-01  9.9430265772245552e-01  9.9410485884440380e-01  9.9391861440891183e-01  9.9374769789832640e-01  9.9359580045542240e-01  9.9346639686219318e-01  9.9336260842932955e-01  9.9328707122923898e-01  9.9324181850685345e-01  9.9322818567661564e-01  9.9324674503180199e-01  9.9329727524072176e-01  9.9337876808219872e-01  9.9348947196573489e-01  9.9362696892009894e-01  9.9378827924146795e-01  9.9396998613597631e-01  9.9416837164394978e-01  9.9437955495142316e-01  9.9459962482172848e-01  9.9482475916452318e-01  9.9505132648870831e-01  9.9527596592310286e-01  9.9549564441099492e-01  9.9570769140852367e-01  9.9590981281551338e-01  9.9610008687526252e-01  9.9627694538724842e-01  9.9643914381851939e-01  9.9658572384084410e-01  9.9671597154467806e-01  9.9682937418515860e-01  9.9692557793161229e-01  9.9700434897634360e-01  9.9706554117527135e-01  9.9710907694133244e-01  9.9713495814649689e-01  9.9714333826356938e-01  8.8122111205800113e-01  8.8203916642736091e-01  8.8449123249138539e-01  8.8843933215380333e-01  8.9367892161047879e-01  8.9995744603453154e-01  9.0699577393146680e-01  9.1451023184295988e-01  9.2223233716708808e-01  9.2992411346687365e-01  9.3738798436081905e-01  9.4447126088670408e-01  9.5106598122019037e-01  9.5710527350614027e-01  9.6255752134480765e-01  9.6741949715536246e-01  9.7170938684486097e-01  9.7546034462832421e-01  9.7871494955914307e-01  9.8152071856365330e-01  9.8392667569807035e-01  9.8598088053206889e-01  9.8772876907023566e-01  9.8921214526358470e-01  9.9046866769688213e-01  9.9153169465225655e-01  9.9243037440716819e-01  9.9318989177654271e-01  9.9383180395715220e-01  9.9437441746113098e-01  9.9483317301007479e-01  9.9522101689379527e-01  9.9554874592736220e-01  9.9582531930496254e-01  9.9605813487977513e-01  9.9625327016793519e-01  9.9641569007634556e-01  9.9654942430321658e-01  9.9665771779849799e-01  9.9674315777858880e-01  9.9680778069553899e-01  9.9685316235586596e-01  9.9688049412874169e-01  9.9689064791605175e-01  9.9688423229966505e-01  9.9686164204411054e-01  9.9682310291679754e-01  9.9676871358735641e-01  9.9669848617204138e-01  9.9661238678408126e-01  9.9651037721951641e-01  9.9639245863229342e-01  9.9625871771462815e-01  9.9610937548410494e-01  9.9594483827868463e-01  9.9576574997514844e-01  9.9557304378927158e-01  9.9536799131820108e-01  9.9515224579826200e-01  9.9492787594702348e-01  9.9469738632812477e-01  9.9446372002452466e-01  9.9423023963451795e-01  9.9400068330282842e-01  9.9377909371751727e-01  9.9356971973578978e-01  9.9337689246625771e-01  9.9320488006620555e-01  9.9305772796561464e-01  9.9293909340432451e-01  9.9285208474632802e-01  9.9279911673092280e-01  9.9278179243739639e-01  9.9280082121549196e-01  9.9285597926595381e-01  9.9294611620017226e-01  9.9306920714682534e-01  9.9322244625451117e-01  9.9340237420455990e-01  9.9360502996170474e-01  9.9382611568343193e-01  9.9406116355197627e-01  9.9430569419807124e-01  9.9455535813636653e-01  9.9480605393250343e-01  9.9505401934951554e-01  9.9529589417943587e-01  9.9552875561922172e-01  9.9575012874428726e-01  9.9595797579875189e-01  9.9615066866456492e-01  9.9632694905455133e-01  9.9648588079662903e-01  9.9662679815703981e-01  9.9674925361912770e-01  9.9685296803610435e-01  9.9693778579386672e-01  9.9700363778508139e-01  9.9705051569225434e-01  9.9707846091278751e-01  9.9708756209931138e-01  8.8667819642727796e-01  8.8743625404928084e-01  8.8972892317926799e-01  8.9343300285499461e-01  8.9835996325587253e-01  9.0427455664754575e-01  9.1091564585466778e-01  9.1801706292859786e-01  9.2532613709327438e-01  9.3261810769707099e-01  9.3970553593256867e-01  9.4644271301895899e-01  9.5272573604721111e-01  9.5848930953524702e-01  9.6370144445583106e-01  9.6835713384446243e-01  9.7247187002123869e-01  9.7607561026371692e-01  9.7920755151118533e-01  9.8191187231115273e-01  9.8423445340449656e-01  9.8622049501858811e-01  9.8791289970918073e-01  9.8935127263793510e-01  9.9057139527254068e-01  9.9160504450947884e-01  9.9248005048908328e-01  9.9322050852514077e-01  9.9384708105317576e-01  9.9437734306757641e-01  9.9482613878047188e-01  9.9520592831554433e-01  9.9552711152931150e-01  9.9579832201221274e-01  9.9602668844727615e-01  9.9621806323363760e-01  9.9637721998580242e-01  9.9650802249493942e-01  9.9661356821617175e-01  9.9669630949853594e-01  9.9675815572759685e-01  9.9680055939304135e-01  9.9682458888480951e-01  9.9683099059983382e-01  9.9682024272958258e-01  9.9679260290665350e-01  9.9674815171779219e-01  9.9668683393489754e-01  9.9660849916291983e-01  9.9651294343732144e-01  9.9639995310326090e-01  9.9626935205047640e-01  9.9612105303758203e-01  9.9595511339436482e-01  9.9577179482318690e-01  9.9557162632330320e-01  9.9535546844317757e-01  9.9512457615600980e-01  9.9488065671048076e-01  9.9462591792093347e-01  9.9436310164810582e-01  9.9409549682642362e-01  9.9382692647012716e-01  9.9356170377934505e-01  9.9330455386852878e-01  9.9306049977943478e-01  9.9283471424156433e-01  9.9263234190474692e-01  9.9245830016960901e-01  9.9231706986431389e-01  9.9221248939955276e-01  9.9214756724915576e-01  9.9212432733648270e-01  9.9214370003135977e-01  9.9220546808773347e-01  9.9230827232476937e-01  9.9244967671225470e-01  9.9262628740885961e-01  9.9283391585875491e-01  9.9306777280486691e-01  9.9332267835532984e-01  9.9359327313438672e-01  9.9387421691834243e-01  9.9416036367471217e-01  9.9444690515212875e-01  9.9472947864668393e-01  9.9500423788052894e-01  9.9526788875248540e-01  9.9551769386330846e-01  9.9575145110872942e-01  9.9596745230469130e-01  9.9616442786955850e-01  9.9634148318909865e-01  9.9649803159854755e-01  9.9663372809379513e-01  9.9674840707317547e-01  9.9684202671738698e-01  9.9691462204340120e-01  9.9696626791933485e-01  9.9699705128246441e-01  9.9700704599858125e-01  8.9321129441159919e-01  8.9390585627967223e-01  8.9601943932146766e-01  8.9944224108863746e-01  9.0400361624923742e-01  9.0948892854209895e-01  9.1565874304975037e-01  9.2226803328984586e-01  9.2908325285945847e-01  9.3589569018695229e-01  9.4253030827577422e-01  9.4885004456376953e-01  9.5475614708608192e-01  9.6018547917007702e-01  9.6510584071453098e-01  9.6951028388333538e-01  9.7341121781549711e-01  9.7683486916980045e-01  9.7981644394225398e-01  9.8239615108377343e-01  9.8461611197678567e-01  9.8651809116401423e-01  9.8814193522332472e-01  9.8952458811798993e-01  9.9069955272607813e-01  9.9169668124933485e-01  9.9254219564824242e-01  9.9325885900605204e-01  9.9386623730767976e-01  9.9438100726160572e-01  9.9481727903950201e-01  9.9518691319824448e-01  9.9549981888484174e-01  9.9576422611993964e-01  9.9598692894053165e-01  9.9617349885423789e-01  9.9632846975593536e-01  9.9645549645926434e-01  9.9655748951709611e-01  9.9663672921034641e-01  9.9669496159398008e-01  9.9673347938847656e-01  9.9675319035332999e-01  9.9675467561480113e-01  9.9673824026600910e-01  9.9670395842451809e-01  9.9665171482231918e-01  9.9658124490912714e-01  9.9649217535881196e-01  9.9638406676073932e-01  9.9625646012709057e-01  9.9610892862308453e-01  9.9594113559524178e-01  9.9575289949862988e-01  9.9554426567649812e-01  9.9531558410413989e-01  9.9506759117093779e-01  9.9480149236600734e-01  9.9451904141697078e-01  9.9422261011688950e-01  9.9391524191847846e-01  9.9360068157816994e-01  9.9328337292344249e-01  9.9296841742105879e-01  9.9266148782329078e-01  9.9236869385110860e-01  9.9209640058032222e-01  9.9185100468965615e-01  9.9163867857768873e-01  9.9146509696446694e-01  9.9133516427922708e-01  9.9125276323447720e-01  9.9122054498630607e-01  9.9123977894115811e-01  9.9131027570362218e-01  9.9143039034828839e-01  9.9159710592561945e-01  9.9180618983373769e-01  9.9205240936322270e-01  9.9232978813890560e-01  9.9263188282827597e-01  9.9295205948186960e-01  9.9328375098497346e-01  9.9362068082557387e-01  9.9395704305889410e-01  9.9428763328647707e-01  9.9460793006533454e-01  9.9491412997792528e-01  9.9520314237589647e-01  9.9547255149306368e-01  9.9572055428875361e-01  9.9594588221448799e-01  9.9614771432814786e-01  9.9632558805002802e-01  9.9647931257882849e-01  9.9660888872832798e-01  9.9671443780240154e-01  9.9679614108609482e-01  9.9685419041757628e-01  9.9688874876710742e-01  9.9689991769164965e-01  9.0054741518523695e-01  9.0117582233562321e-01  9.0309677624427487e-01  9.0621330625013086e-01  9.1037344150325394e-01  9.1538490808164119e-01  9.2103219499114886e-01  9.2709376599064142e-01  9.3335745339726539e-01  9.3963261026406675e-01  9.4575828828459951e-01  9.5160738468917550e-01  9.5708723285734931e-01  9.6213743516478922e-01  9.6672585291182966e-01  9.7084362016050652e-01  9.7449989711560825e-01  9.7771688339066543e-01  9.8052541732918019e-01  9.8296132221770216e-01  9.8506253574906988e-01  9.8686697619084729e-01  9.8841105155160658e-01  9.8972869808946418e-01  9.9085083312588573e-01  9.9180511693022455e-01  9.9261593382040914e-01  9.9330451973155898e-01  9.9388917995701342e-01  9.9438555528988426e-01  9.9480690686938955e-01  9.9516439961967751e-01  9.9546737147774622e-01  9.9572358098012725e-01  9.9593942958508885e-01  9.9612015769828754e-01  9.9627001505055557e-01  9.9639240709924204e-01  9.9649001968937823e-01  9.9656492447143008e-01  9.9661866764284102e-01  9.9665234454363083e-01  9.9666666254984371e-01  9.9666199461127503e-01  9.9663842569542971e-01  9.9659579434010659e-01  9.9653373148461077e-01  9.9645169873788952e-01  9.9634902823599003e-01  9.9622496621779599e-01  9.9607872237498185e-01  9.9590952686908174e-01  9.9571669660783568e-01  9.9549971188246333e-01  9.9525830373602375e-01  9.9499255141832343e-01  9.9470298796321810e-01  9.9439071031276338e-01  9.9405748857349463e-01  9.9370586705289232e-01  9.9333924789404593e-01  9.9296194668348803e-01  9.9257920868846927e-01  9.9219717474239644e-01  9.9182278755696818e-01  9.9146363259475201e-01  9.9112771258318277e-01  9.9082316101606704e-01  9.9055790699461566e-01  9.9033931065440828e-01  9.9017379417911988e-01  9.9006649697806604e-01  9.9002098416078654e-01  9.9003903453366682e-01  9.9012052806645778e-01  9.9026344380366005e-01  9.9046396868944042e-01  9.9071670718417648e-01  9.9101497234049274e-01  9.9135113238263128e-01  9.9171698353117210e-01  9.9210412000074732e-01  9.9250427539003494e-01  9.9290961528323596e-01  9.9331296776997891e-01  9.9370798572802643e-01  9.9408924121530284e-01  9.9445225756146705e-01  9.9479348841155313e-01  9.9511025501018535e-01  9.9540065359495122e-01  9.9566344419689556e-01  9.9589793078594957e-01  9.9610384090221105e-01  9.9628121098018219e-01  9.9643028172324044e-01  9.9655140624931537e-01  9.9664497234116045e-01  9.9671133895305064e-01  9.9675078611743484e-01  9.9676347681485866e-01  9.0840443358648526e-01  9.0896594952414012e-01  9.1068783281298105e-01  9.1348553881011008e-01  9.1722584513145966e-01  9.2173940932979204e-01  9.2683556404927347e-01  9.3231738020093280e-01  9.3799525866742506e-01  9.4369778351927947e-01  9.4927916439252391e-01  9.5462317769647398e-01  9.5964397984454863e-01  9.6428445646232530e-01  9.6851288656546974e-01  9.7231867334189792e-01  9.7570777333304959e-01  9.7869829321397928e-01  9.8131655725738809e-01  9.8359380394846141e-01  9.8556355886832625e-01  9.8725965477705380e-01  9.8871482469292715e-01  9.8995977286043457e-01  9.9102262457055457e-01  9.9192866245418387e-01  9.9270026913148945e-01  9.9335701045171620e-01  9.9391580775621080e-01  9.9439116038054398e-01  9.9479539040935494e-01  9.9513889038528258e-01  9.9543036138529095e-01  9.9567703387624096e-01  9.9588486735297133e-01  9.9605872724666067e-01  9.9620253923716717e-01  9.9631942213620406e-01  9.9641180111067806e-01  9.9648150332912033e-01  9.9652983824628272e-01  9.9655766477081209e-01  9.9656544754515752e-01  9.9655330454459434e-01  9.9652104819861465e-01  9.9646822226669396e-01  9.9639413676534849e-01  9.9629790333860024e-01  9.9617847357354161e-01  9.9603468285962748e-01  9.9586530243527127e-01  9.9566910220570826e-01  9.9544492668639384e-01  9.9519178595029412e-01  9.9490896265425421e-01  9.9459613501334587e-01  9.9425351392754469e-01  9.9388199032881730e-01  9.9348328626220761e-01  9.9306010038852532e-01  9.9261623576017100e-01  9.9215669525997485e-01  9.9168772849862874e-01  9.9121681379402404e-01  9.9075256063789874e-01  9.9030452218380205e-01  9.8988291388148486e-01  9.8949824315108237e-01  9.8916086517425394e-01  9.8888049025578439e-01  9.8866567722578458e-01  9.8852335337645236e-01  9.8845840307198740e-01  9.8847336363037985e-01  9.8856825837805917e-01  9.8874058386735764e-01  9.8898545286304107e-01  9.8929587906966487e-01  9.8966317595458109e-01  9.9007743229200462e-01  9.9052802234070803e-01  9.9100410909911929e-01  9.9149510422802689e-01  9.9199105672559151e-01  9.9248295269302012e-01  9.9296291895916489e-01  9.9342433262633001e-01  9.9386184587478810e-01  9.9427134020984254e-01  9.9464982676436042e-01  9.9499530960455529e-01  9.9530662773011647e-01  9.9558328917170258e-01  9.9582530779272316e-01  9.9603305052542856e-01  9.9620710011776670e-01  9.9634813621690355e-01  9.9645683584140765e-01  9.9653379300381173e-01  9.9657945645042212e-01  9.9659408430648200e-01  9.1651189821795431e-01  9.1700773442313499e-01  9.1853093987770107e-01  9.2100883371400244e-01  9.2432640564531987e-01  9.2833686986252473e-01  9.3287423267171121e-01  9.3776620665424826e-01  9.4284597895360966e-01  9.4796172983086568e-01  9.5298329306987117e-01  9.5780583993762325e-01  9.6235086538988290e-01  9.6656501217791835e-01  9.7041737990642418e-01  9.7389595659434747e-01  9.7700371946267850e-01  9.7975482033709049e-01  9.8217113247703780e-01  9.8427931192548723e-01  9.8610842884575567e-01  9.8768815557682721e