<?xml version="1.0"?>
<VTKFile type="UnstructuredGrid"  version="0.1"  >
<UnstructuredGrid>
<Piece  NumberOfPoints="10201" NumberOfCells="20000">
<Points>
<DataArray  type="Float64"  NumberOfComponents="3"  format="ascii">0 0 0  0.25 0 0  0.5 0 0  0.75 0 0  1 0 0  1.25 0 0  1.5 0 0  1.75 0 0  2 0 0  2.25 0 0  2.5 0 0  2.75 0 0  3 0 0  3.25 0 0  3.5 0 0  3.75 0 0  4 0 0  4.25 0 0  4.5 0 0  4.75 0 0  5 0 0  5.25 0 0  5.5 0 0  5.75 0 0  6 0 0  6.25 0 0  6.5 0 0  6.75 0 0  7 0 0  7.25 0 0  7.5 0 0  7.75 0 0  8 0 0  8.25 0 0  8.5 0 0  8.75 0 0  9 0 0  9.25 0 0  9.5 0 0  9.75 0 0  10 0 0  10.25 0 0  10.5 0 0  10.75 0 0  11 0 0  11.25 0 0  11.5 0 0  11.75 0 0  12 0 0  12.25 0 0  12.5 0 0  12.75 0 0  13 0 0  13.25 0 0  13.5 0 0  13.75 0 0  14 0 0  14.25 0 0  14.5 0 0  14.75 0 0  15 0 0  15.25 0 0  15.5 0 0  15.75 0 0  16 0 0  16.25 0 0  16.5 0 0  16.75 0 0  17 0 0  17.25 0 0  17.5 0 0  17.75 0 0  18 0 0  18.25 0 0  18.5 0 0  18.75 0 0  19 0 0  19.25 0 0  19.5 0 0  19.75 0 0  20 0 0  20.25 0 0  20.5 0 0  20.75 0 0  21 0 0  21.25 0 0  21.5 0 0  21.75 0 0  22 0 0  22.25 0 0  22.5 0 0  22.75 0 0  23 0 0  23.25 0 0  23.5 0 0  23.75 0 0  24 0 0  24.25 0 0  24.5 0 0  24.75 0 0  25 0 0  0 0.25 0  0.25 0.25 0  0.5 0.25 0  0.75 0.25 0  1 0.25 0  1.25 0.25 0  1.5 0.25 0  1.75 0.25 0  2 0.25 0  2.25 0.25 0  2.5 0.25 0  2.75 0.25 0  3 0.25 0  3.25 0.25 0  3.5 0.25 0  3.75 0.25 0  4 0.25 0  4.25 0.25 0  4.5 0.25 0  4.75 0.25 0  5 0.25 0  5.25 0.25 0  5.5 0.25 0  5.75 0.25 0  6 0.25 0  6.25 0.25 0  6.5 0.25 0  6.75 0.25 0  7 0.25 0  7.25 0.25 0  7.5 0.25 0  7.75 0.25 0  8 0.25 0  8.25 0.25 0  8.5 0.25 0  8.75 0.25 0  9 0.25 0  9.25 0.25 0  9.5 0.25 0  9.75 0.25 0  10 0.25 0  10.25 0.25 0  10.5 0.25 0  10.75 0.25 0  11 0.25 0  11.25 0.25 0  11.5 0.25 0  11.75 0.25 0  12 0.25 0  12.25 0.25 0  12.5 0.25 0  12.75 0.25 0  13 0.25 0  13.25 0.25 0  13.5 0.25 0  13.75 0.25 0  14 0.25 0  14.25 0.25 0  14.5 0.25 0  14.75 0.25 0  15 0.25 0  15.25 0.25 0  15.5 0.25 0  15.75 0.25 0  16 0.25 0  16.25 0.25 0  16.5 0.25 0  16.75 0.25 0  17 0.25 0  17.25 0.25 0  17.5 0.25 0  17.75 0.25 0  18 0.25 0  18.25 0.25 0  18.5 0.25 0  18.75 0.25 0  19 0.25 0  19.25 0.25 0  19.5 0.25 0  19.75 0.25 0  20 0.25 0  20.25 0.25 0  20.5 0.25 0  20.75 0.25 0  21 0.25 0  21.25 0.25 0  21.5 0.25 0  21.75 0.25 0  22 0.25 0  22.25 0.25 0  22.5 0.25 0  22.75 0.25 0  23 0.25 0  23.25 0.25 0  23.5 0.25 0  23.75 0.25 0  24 0.25 0  24.25 0.25 0  24.5 0.25 0  24.75 0.25 0  25 0.25 0  0 0.5 0  0.25 0.5 0  0.5 0.5 0  0.75 0.5 0  1 0.5 0  1.25 0.5 0  1.5 0.5 0  1.75 0.5 0  2 0.5 0  2.25 0.5 0  2.5 0.5 0  2.75 0.5 0  3 0.5 0  3.25 0.5 0  3.5 0.5 0  3.75 0.5 0  4 0.5 0  4.25 0.5 0  4.5 0.5 0  4.75 0.5 0  5 0.5 0  5.25 0.5 0  5.5 0.5 0  5.75 0.5 0  6 0.5 0  6.25 0.5 0  6.5 0.5 0  6.75 0.5 0  7 0.5 0  7.25 0.5 0  7.5 0.5 0  7.75 0.5 0  8 0.5 0  8.25 0.5 0  8.5 0.5 0  8.75 0.5 0  9 0.5 0  9.25 0.5 0  9.5 0.5 0  9.75 0.5 0  10 0.5 0  10.25 0.5 0  10.5 0.5 0  10.75 0.5 0  11 0.5 0  11.25 0.5 0  11.5 0.5 0  11.75 0.5 0  12 0.5 0  12.25 0.5 0  12.5 0.5 0  12.75 0.5 0  13 0.5 0  13.25 0.5 0  13.5 0.5 0  13.75 0.5 0  14 0.5 0  14.25 0.5 0  14.5 0.5 0  14.75 0.5 0  15 0.5 0  15.25 0.5 0  15.5 0.5 0  15.75 0.5 0  16 0.5 0  16.25 0.5 0  16.5 0.5 0  16.75 0.5 0  17 0.5 0  17.25 0.5 0  17.5 0.5 0  17.75 0.5 0  18 0.5 0  18.25 0.5 0  18.5 0.5 0  18.75 0.5 0  19 0.5 0  19.25 0.5 0  19.5 0.5 0  19.75 0.5 0  20 0.5 0  20.25 0.5 0  20.5 0.5 0  20.75 0.5 0  21 0.5 0  21.25 0.5 0  21.5 0.5 0  21.75 0.5 0  22 0.5 0  22.25 0.5 0  22.5 0.5 0  22.75 0.5 0  23 0.5 0  23.25 0.5 0  23.5 0.5 0  23.75 0.5 0  24 0.5 0  24.25 0.5 0  24.5 0.5 0  24.75 0.5 0  25 0.5 0  0 0.75 0  0.25 0.75 0  0.5 0.75 0  0.75 0.75 0  1 0.75 0  1.25 0.75 0  1.5 0.75 0  1.75 0.75 0  2 0.75 0  2.25 0.75 0  2.5 0.75 0  2.75 0.75 0  3 0.75 0  3.25 0.75 0  3.5 0.75 0  3.75 0.75 0  4 0.75 0  4.25 0.75 0  4.5 0.75 0  4.75 0.75 0  5 0.75 0  5.25 0.75 0  5.5 0.75 0  5.75 0.75 0  6 0.75 0  6.25 0.75 0  6.5 0.75 0  6.75 0.75 0  7 0.75 0  7.25 0.75 0  7.5 0.75 0  7.75 0.75 0  8 0.75 0  8.25 0.75 0  8.5 0.75 0  8.75 0.75 0  9 0.75 0  9.25 0.75 0  9.5 0.75 0  9.75 0.75 0  10 0.75 0  10.25 0.75 0  10.5 0.75 0  10.75 0.75 0  11 0.75 0  11.25 0.75 0  11.5 0.75 0  11.75 0.75 0  12 0.75 0  12.25 0.75 0  12.5 0.75 0  12.75 0.75 0  13 0.75 0  13.25 0.75 0  13.5 0.75 0  13.75 0.75 0  14 0.75 0  14.25 0.75 0  14.5 0.75 0  14.75 0.75 0  15 0.75 0  15.25 0.75 0  15.5 0.75 0  15.75 0.75 0  16 0.75 0  16.25 0.75 0  16.5 0.75 0  16.75 0.75 0  17 0.75 0  17.25 0.75 0  17.5 0.75 0  17.75 0.75 0  18 0.75 0  18.25 0.75 0  18.5 0.75 0  18.75 0.75 0  19 0.75 0  19.25 0.75 0  19.5 0.75 0  19.75 0.75 0  20 0.75 0  20.25 0.75 0  20.5 0.75 0  20.75 0.75 0  21 0.75 0  21.25 0.75 0  21.5 0.75 0  21.75 0.75 0  22 0.75 0  22.25 0.75 0  22.5 0.75 0  22.75 0.75 0  23 0.75 0  23.25 0.75 0  23.5 0.75 0  23.75 0.75 0  24 0.75 0  24.25 0.75 0  24.5 0.75 0  24.75 0.75 0  25 0.75 0  0 1 0  0.25 1 0  0.5 1 0  0.75 1 0  1 1 0  1.25 1 0  1.5 1 0  1.75 1 0  2 1 0  2.25 1 0  2.5 1 0  2.75 1 0  3 1 0  3.25 1 0  3.5 1 0  3.75 1 0  4 1 0  4.25 1 0  4.5 1 0  4.75 1 0  5 1 0  5.25 1 0  5.5 1 0  5.75 1 0  6 1 0  6.25 1 0  6.5 1 0  6.75 1 0  7 1 0  7.25 1 0  7.5 1 0  7.75 1 0  8 1 0  8.25 1 0  8.5 1 0  8.75 1 0  9 1 0  9.25 1 0  9.5 1 0  9.75 1 0  10 1 0  10.25 1 0  10.5 1 0  10.75 1 0  11 1 0  11.25 1 0  11.5 1 0  11.75 1 0  12 1 0  12.25 1 0  12.5 1 0  12.75 1 0  13 1 0  13.25 1 0  13.5 1 0  13.75 1 0  14 1 0  14.25 1 0  14.5 1 0  14.75 1 0  15 1 0  15.25 1 0  15.5 1 0  15.75 1 0  16 1 0  16.25 1 0  16.5 1 0  16.75 1 0  17 1 0  17.25 1 0  17.5 1 0  17.75 1 0  18 1 0  18.25 1 0  18.5 1 0  18.75 1 0  19 1 0  19.25 1 0  19.5 1 0  19.75 1 0  20 1 0  20.25 1 0  20.5 1 0  20.75 1 0  21 1 0  21.25 1 0  21.5 1 0  21.75 1 0  22 1 0  22.25 1 0  22.5 1 0  22.75 1 0  23 1 0  23.25 1 0  23.5 1 0  23.75 1 0  24 1 0  24.25 1 0  24.5 1 0  24.75 1 0  25 1 0  0 1.25 0  0.25 1.25 0  0.5 1.25 0  0.75 1.25 0  1 1.25 0  1.25 1.25 0  1.5 1.25 0  1.75 1.25 0  2 1.25 0  2.25 1.25 0  2.5 1.25 0  2.75 1.25 0  3 1.25 0  3.25 1.25 0  3.5 1.25 0  3.75 1.25 0  4 1.25 0  4.25 1.25 0  4.5 1.25 0  4.75 1.25 0  5 1.25 0  5.25 1.25 0  5.5 1.25 0  5.75 1.25 0  6 1.25 0  6.25 1.25 0  6.5 1.25 0  6.75 1.25 0  7 1.25 0  7.25 1.25 0  7.5 1.25 0  7.75 1.25 0  8 1.25 0  8.25 1.25 0  8.5 1.25 0  8.75 1.25 0  9 1.25 0  9.25 1.25 0  9.5 1.25 0  9.75 1.25 0  10 1.25 0  10.25 1.25 0  10.5 1.25 0  10.75 1.25 0  11 1.25 0  11.25 1.25 0  11.5 1.25 0  11.75 1.25 0  12 1.25 0  12.25 1.25 0  12.5 1.25 0  12.75 1.25 0  13 1.25 0  13.25 1.25 0  13.5 1.25 0  13.75 1.25 0  14 1.25 0  14.25 1.25 0  14.5 1.25 0  14.75 1.25 0  15 1.25 0  15.25 1.25 0  15.5 1.25 0  15.75 1.25 0  16 1.25 0  16.25 1.25 0  16.5 1.25 0  16.75 1.25 0  17 1.25 0  17.25 1.25 0  17.5 1.25 0  17.75 1.25 0  18 1.25 0  18.25 1.25 0  18.5 1.25 0  18.75 1.25 0  19 1.25 0  19.25 1.25 0  19.5 1.25 0  19.75 1.25 0  20 1.25 0  20.25 1.25 0  20.5 1.25 0  20.75 1.25 0  21 1.25 0  21.25 1.25 0  21.5 1.25 0  21.75 1.25 0  22 1.25 0  22.25 1.25 0  22.5 1.25 0  22.75 1.25 0  23 1.25 0  23.25 1.25 0  23.5 1.25 0  23.75 1.25 0  24 1.25 0  24.25 1.25 0  24.5 1.25 0  24.75 1.25 0  25 1.25 0  0 1.5 0  0.25 1.5 0  0.5 1.5 0  0.75 1.5 0  1 1.5 0  1.25 1.5 0  1.5 1.5 0  1.75 1.5 0  2 1.5 0  2.25 1.5 0  2.5 1.5 0  2.75 1.5 0  3 1.5 0  3.25 1.5 0  3.5 1.5 0  3.75 1.5 0  4 1.5 0  4.25 1.5 0  4.5 1.5 0  4.75 1.5 0  5 1.5 0  5.25 1.5 0  5.5 1.5 0  5.75 1.5 0  6 1.5 0  6.25 1.5 0  6.5 1.5 0  6.75 1.5 0  7 1.5 0  7.25 1.5 0  7.5 1.5 0  7.75 1.5 0  8 1.5 0  8.25 1.5 0  8.5 1.5 0  8.75 1.5 0  9 1.5 0  9.25 1.5 0  9.5 1.5 0  9.75 1.5 0  10 1.5 0  10.25 1.5 0  10.5 1.5 0  10.75 1.5 0  11 1.5 0  11.25 1.5 0  11.5 1.5 0  11.75 1.5 0  12 1.5 0  12.25 1.5 0  12.5 1.5 0  12.75 1.5 0  13 1.5 0  13.25 1.5 0  13.5 1.5 0  13.75 1.5 0  14 1.5 0  14.25 1.5 0  14.5 1.5 0  14.75 1.5 0  15 1.5 0  15.25 1.5 0  15.5 1.5 0  15.75 1.5 0  16 1.5 0  16.25 1.5 0  16.5 1.5 0  16.75 1.5 0  17 1.5 0  17.25 1.5 0  17.5 1.5 0  17.75 1.5 0  18 1.5 0  18.25 1.5 0  18.5 1.5 0  18.75 1.5 0  19 1.5 0  19.25 1.5 0  19.5 1.5 0  19.75 1.5 0  20 1.5 0  20.25 1.5 0  20.5 1.5 0  20.75 1.5 0  21 1.5 0  21.25 1.5 0  21.5 1.5 0  21.75 1.5 0  22 1.5 0  22.25 1.5 0  22.5 1.5 0  22.75 1.5 0  23 1.5 0  23.25 1.5 0  23.5 1.5 0  23.75 1.5 0  24 1.5 0  24.25 1.5 0  24.5 1.5 0  24.75 1.5 0  25 1.5 0  0 1.75 0  0.25 1.75 0  0.5 1.75 0  0.75 1.75 0  1 1.75 0  1.25 1.75 0  1.5 1.75 0  1.75 1.75 0  2 1.75 0  2.25 1.75 0  2.5 1.75 0  2.75 1.75 0  3 1.75 0  3.25 1.75 0  3.5 1.75 0  3.75 1.75 0  4 1.75 0  4.25 1.75 0  4.5 1.75 0  4.75 1.75 0  5 1.75 0  5.25 1.75 0  5.5 1.75 0  5.75 1.75 0  6 1.75 0  6.25 1.75 0  6.5 1.75 0  6.75 1.75 0  7 1.75 0  7.25 1.75 0  7.5 1.75 0  7.75 1.75 0  8 1.75 0  8.25 1.75 0  8.5 1.75 0  8.75 1.75 0  9 1.75 0  9.25 1.75 0  9.5 1.75 0  9.75 1.75 0  10 1.75 0  10.25 1.75 0  10.5 1.75 0  10.75 1.75 0  11 1.75 0  11.25 1.75 0  11.5 1.75 0  11.75 1.75 0  12 1.75 0  12.25 1.75 0  12.5 1.75 0  12.75 1.75 0  13 1.75 0  13.25 1.75 0  13.5 1.75 0  13.75 1.75 0  14 1.75 0  14.25 1.75 0  14.5 1.75 0  14.75 1.75 0  15 1.75 0  15.25 1.75 0  15.5 1.75 0  15.75 1.75 0  16 1.75 0  16.25 1.75 0  16.5 1.75 0  16.75 1.75 0  17 1.75 0  17.25 1.75 0  17.5 1.75 0  17.75 1.75 0  18 1.75 0  18.25 1.75 0  18.5 1.75 0  18.75 1.75 0  19 1.75 0  19.25 1.75 0  19.5 1.75 0  19.75 1.75 0  20 1.75 0  20.25 1.75 0  20.5 1.75 0  20.75 1.75 0  21 1.75 0  21.25 1.75 0  21.5 1.75 0  21.75 1.75 0  22 1.75 0  22.25 1.75 0  22.5 1.75 0  22.75 1.75 0  23 1.75 0  23.25 1.75 0  23.5 1.75 0  23.75 1.75 0  24 1.75 0  24.25 1.75 0  24.5 1.75 0  24.75 1.75 0  25 1.75 0  0 2 0  0.25 2 0  0.5 2 0  0.75 2 0  1 2 0  1.25 2 0  1.5 2 0  1.75 2 0  2 2 0  2.25 2 0  2.5 2 0  2.75 2 0  3 2 0  3.25 2 0  3.5 2 0  3.75 2 0  4 2 0  4.25 2 0  4.5 2 0  4.75 2 0  5 2 0  5.25 2 0  5.5 2 0  5.75 2 0  6 2 0  6.25 2 0  6.5 2 0  6.75 2 0  7 2 0  7.25 2 0  7.5 2 0  7.75 2 0  8 2 0  8.25 2 0  8.5 2 0  8.75 2 0  9 2 0  9.25 2 0  9.5 2 0  9.75 2 0  10 2 0  10.25 2 0  10.5 2 0  10.75 2 0  11 2 0  11.25 2 0 
[...]
<PointData  Scalars="f_26"> 
<DataArray  type="Float64"  Name="f_26"  format="ascii">8.1232483445039805e-01  8.1201347518310718e-01  8.1142815857493045e-01  8.1050413981239000e-01  8.0920300625418984e-01  8.0748570782158613e-01  8.0530508976852933e-01  8.0260280494787029e-01  7.9930715108737527e-01  7.9533095279389410e-01  7.9056922360559778e-01  7.8489651094715507e-01  7.7816388851912299e-01  7.7019560422368127e-01  7.6078544700069761e-01  7.4969297986086358e-01  7.3663991399927631e-01  7.2130708522479625e-01  7.0333275198958600e-01  6.8231326863915331e-01  6.5780758270645212e-01  6.2934740745239126e-01  5.9645521477176866e-01  5.5867217957501980e-01  5.1559759933349369e-01  4.6693978853975632e-01  4.1257578183511190e-01  3.5261347792885411e-01  2.8744582860037599e-01  2.1778376065347238e-01  1.4465459511353665e-01  6.9357278144804704e-02  -6.6253077833595322e-03  -8.1745650724919988e-02  -1.5452213754865007e-01  -2.2365706408153105e-01  -2.8812225660798407e-01  -3.4720176058990182e-01  -4.0049193952764883e-01  -4.4786791079644167e-01  -4.8942944023221957e-01  -5.2543930839080699e-01  -5.5626424371966954e-01  -5.8232459645699330e-01  -6.0405535179218139e-01  -6.2187850829294566e-01  -6.3618537111994311e-01  -6.4732671379531037e-01  -6.5560874062469665e-01  -6.6129306188147741e-01  -6.6459928320639305e-01  -6.6570919594478462e-01  -6.6477188191954761e-01  -6.6190929687038214e-01  -6.5722207341802763e-01  -6.5079539708043765e-01  -6.4270486970411644e-01  -6.3302229504096530e-01  -6.2182131103627536e-01  -6.0918276163342588e-01  -5.9519965631166205e-01  -5.7998151751586491e-01  -5.6365787491558361e-01  -5.4638064197067471e-01  -5.2832511501513602e-01  -5.0968937610803844e-01  -4.9069196182503205e-01  -4.7156777806770545e-01  -4.5256238546169986e-01  -4.3392493376199071e-01  -4.1590016531579305e-01  -3.9872001518696115e-01  -3.8259539146986310e-01  -3.6770871425298657e-01  -3.5420772643358373e-01  -3.4220097459061077e-01  -3.3175521075474945e-01  -3.2289480639190471e-01  -3.1560311724223233e-01  -3.0982560658608216e-01  -3.0547443412968239e-01  -3.0243415156824910e-01  -3.0056811318451021e-01  -2.9972520697635557e-01  -2.9974653379796901e-01  -3.0047170345419566e-01  -3.0174447231592988e-01  -3.0341751182163207e-01  -3.0535616654554837e-01  -3.0744113012262575e-01  -3.0957003356238161e-01  -3.1165800043790093e-01  -3.1363727510123990e-01  -3.1545607258689679e-01  -3.1707683298888933e-01  -3.1847409301526802e-01  -3.1963222767626037e-01  -3.2054341920805368e-01  -3.2120659691672121e-01  -3.2162973084023339e-01  -3.2184533646882457e-01  8.1152095616392406e-01  8.1131131106865351e-01  8.1075145501559953e-01  8.0983522334708802e-01  8.0853727415035825e-01  8.0682170541869880e-01  8.0464214971776848e-01  8.0194040938848077e-01  7.9864472791826524e-01  7.9466779853133729e-01  7.8990447234282279e-01  7.8422912684758439e-01  7.7749267631761088e-01  7.6951923851939807e-01  7.6010252442218884e-01  7.4900210058190120e-01  7.3593980103861389e-01  7.2059675120371169e-01  7.0261172270948624e-01  6.8158186953620770e-01  6.5706728592724262e-01  6.2860122173738608e-01  5.9570807606661680e-01  5.5793126853053088e-01  5.1487247918747758e-01  4.6624223751160648e-01  4.1191920907266305e-01  3.5201188137430134e-01  2.8691238073237701e-01  2.1732926419337090e-01  1.4428616858929866e-01  6.9077632683714918e-02  -6.8177910046476921e-03  -8.1856091397794942e-02  -1.5455786953718170e-01  -2.2362629571302761e-01  -2.8803301746018595e-01  -3.4706129343112702e-01  -4.0030650822406699e-01  -4.4764288281191883e-01  -4.8916948438985031e-01  -5.2514859302305561e-01  -5.5594658198149605e-01  -5.8198353343458464e-01  -6.0369421223561659e-01  -6.2150042866473065e-01  -6.3579333414180317e-01  -6.4692359529198307e-01  -6.5519737134215195e-01  -6.6087630241484407e-01  -6.6418010795032656e-01  -6.6529078126391805e-01  -6.6435769373799447e-01  -6.6150317304474782e-01  -6.5682829629669415e-01  -6.5041875148030437e-01  -6.4235068121725158e-01  -6.3269644327438790e-01  -6.2153021229933914e-01  -6.0893331594929623e-01  -5.9499915465325148e-01  -5.7983750699875714e-01  -5.6357798235334156e-01  -5.4637235958666353e-01  -5.2839555590617759e-01  -5.0984501080324762e-01  -4.9093835041409772e-01  -4.7190931433079519e-01  -4.5300206979758728e-01  -4.3446419030886435e-01  -4.1653871562387434e-01  -3.9945581655466100e-01  -3.8342464320967723e-01  -3.6862593037404978e-01  -3.5520586908545015e-01  -3.4327163948204453e-01  -3.3288885378485339e-01  -3.2408099984858235e-01  -3.1683082394234302e-01  -3.1108346100910866e-01  -3.0675102070238053e-01  -3.0371827161064868e-01  -3.0184903350193421e-01  -3.0099288459372670e-01  -3.0099181281928933e-01  -3.0168648143486199e-01  -3.0292183479979073e-01  -3.0455183475972625e-01  -3.0644318712800117e-01  -3.0847798708235641e-01  -3.1055527822604584e-01  -3.1259157967709994e-01  -3.1452048677488892e-01  -3.1629149268724754e-01  -3.1786821016744321e-01  -3.1922619555780307e-01  -3.2035059098620172e-01  -3.2123379608081587e-01  -3.2187328267676357e-01  -3.2226901499918864e-01  -3.2241609924730452e-01  8.0947152453857152e-01  8.0928837645425178e-01  8.0874764055908122e-01  8.0784312594763485e-01  8.0655315498369673e-01  8.0484376058581986e-01  8.0266927209601691e-01  7.9997156757355747e-01  7.9667866589370795e-01  7.9270288772915398e-01  7.8793864285606330e-01  7.8225984924231495e-01  7.7551698537418423e-01  7.6753379993829063e-01  7.5810375134910168e-01  7.4698633117406910e-01  7.3390355190047807e-01  7.1853706407181706e-01  7.0052662215579831e-01  6.7947094572737476e-01  6.5493240582051293e-01  6.2644735118368577e-01  5.9354416126611431e-01  5.5577107776082690e-01  5.1273524986223584e-01  4.6415292344810538e-01  4.0990810249884957e-01  3.5011342359913777e-01  2.8516309725144701e-01  2.1576496013304575e-01  1.4293875180643165e-01  6.7972109156979377e-02  -7.6655705631205563e-03  -8.2440503582524097e-02  -1.5488326751351864e-01  -2.2370561184721843e-01  -2.8788562331992523e-01  -3.4671059550595867e-01  -3.9977769084445230e-01  -4.4696106436545574e-01  -4.8835839810113912e-01  -5.2422978407179099e-01  -5.5493904282031292e-01  -5.8090367224775696e-01  -6.0255605100464471e-01  -6.2031594339752671e-01  -6.3457287066150414e-01  -6.4567631392708824e-01  -6.5393169032013887e-01  -6.5960032198980723e-01  -6.6290200549881262e-01  -6.6401917237233221e-01  -6.6310195639374980e-01  -6.6027373211182594e-01  -6.5563686410924582e-01  -6.4927851816562610e-01  -6.4127644577161769e-01  -6.3170467397653707e-01  -6.2063902329812126e-01  -6.0816234636575772e-01  -5.9436933783335699e-01  -5.7937072107862553e-01  -5.6329657927785670e-01  -5.4629857804275661e-01  -5.2855083375018730e-01  -5.1024922347230395e-01  -4.9160901212230002e-01  -4.7286078697744127e-01  -4.5424482897289259e-01  -4.3600419751902614e-01  -4.1837694052465463e-01  -4.0158794307077439e-01  -3.8584098018540791e-01  -3.7131153261826522e-01  -3.5814086024361719e-01  -3.4643171573857945e-01  -3.3624593808481790e-01  -3.2760401059073108e-01  -3.2048651980380766e-01  -3.1483732416799726e-01  -3.1056814348773809e-01  -3.0756421578922472e-01  -3.0569063638713267e-01  -3.0479899146975359e-01  -3.0473392048159148e-01  -3.0533928270802213e-01  -3.0646365849593094e-01  -3.0796497949197915e-01  -3.0971415052628648e-01  -3.1159759414740551e-01  -3.1351871373260687e-01  -3.1539832966094589e-01  -3.1717419310514200e-01  -3.1879972209871171e-01  -3.2024213349960079e-01  -3.2148016043644628e-01  -3.2250154239468892e-01  -3.2330043729822372e-01  -3.2387478334715969e-01  -3.2422333170629158e-01  -3.2434164205012245e-01  8.0614410698264016e-01  8.0597034687377456e-01  8.0544218186761241e-01  8.0454938701897960e-01  8.0326994866378143e-01  8.0157012966006236e-01  7.9940425443578389e-01  7.9671389261790837e-01  7.9342652999033247e-01  7.8945381289180083e-01  7.8468940388703501e-01  7.7900645998415774e-01  7.7225474298147034e-01  7.6425739289059702e-01  7.5480744276831813e-01  7.4366423440038532e-01  7.3055002024190474e-01  7.1514722048226076e-01  6.9709705574279313e-01  6.7600059778164046e-01  6.5142365464493923e-01  6.2290727761153697e-01  5.8998593079121198e-01  5.5221530860245893e-01  5.0921115352317892e-01  4.6069892130482692e-01  4.0657156949763823e-01  3.4694923136910821e-01  2.8223076564797822e-01  2.1312449286607010e-01  1.4064558694958210e-01  6.6071951694398223e-02  -9.1410920654278836e-03  -8.3476508697033852e-02  -1.5548214253665640e-01  -2.2388540758502670e-01  -2.8767683542216654e-01  -3.4615210048552125e-01  -3.9891262648506742e-01  -4.4583326031967307e-01  -4.8700969240236897e-01  -5.2269830748639357e-01  -5.5325837462391159e-01  -5.7910268047384872e-01  -6.0065921010658518e-01  -6.1834394516566737e-01  -6.3254338566100987e-01  -6.4360480419236854e-01  -6.5183221095940247e-01  -6.5748627673381854e-01  -6.6078683926936921e-01  -6.6191699422879602e-01  -6.6102809064418699e-01  -6.5824519568364559e-01  -6.5367276588326195e-01  -6.4740037202624845e-01  -6.3950838457181658e-01  -6.3007354733858534e-01  -6.1917435904182005e-01  -6.0689615425676291e-01  -5.9333573611892076e-01  -5.7860537161700565e-01  -5.6283592633953949e-01  -5.4617889892392779e-01  -5.2880712538010988e-01  -5.1091396667583788e-01  -4.9271087194478913e-01  -4.7442332097373896e-01  -4.5628528318985895e-01  -4.3853247026975684e-01  -4.2139478625158794e-01  -4.0508847323810160e-01  -3.8980849710716470e-01  -3.7572170818605266e-01  -3.6296124774262511e-01  -3.5162256209026010e-01  -3.4176124788239259e-01  -3.3339280311790981e-01  -3.2649421578009341e-01  -3.2100719945274891e-01  -3.1684279123223591e-01  -3.1388696532992127e-01  -3.1200688546007604e-01  -3.1105741726995345e-01  -3.1088754408247804e-01  -3.1134636993201592e-01  -3.1228844810415846e-01  -3.1357823620517367e-01  -3.1509354562584613e-01  -3.1672792005701711e-01  -3.1839194099563078e-01  -3.2001351518174204e-01  -3.2153724755979463e-01  -3.2292304215144302e-01  -3.2414410086581585e-01  -3.2518450504694857e-01  -3.2603656342182763e-01  -3.2669808829020147e-01  -3.2716971852692606e-01  -3.2745238382998976e-01  -3.2754523222459431e-01  8.0155436673354530e-01  8.0138592885461313e-01  8.0086753192716986e-01  7.9998641295340556e-01  7.9871936373745334e-01  7.9703198323624369e-01  7.9487797314801645e-01  7.9219815260769777e-01  7.8891910963961642e-01  7.8495148050061003e-01  7.8018785855444284e-01  7.7450033411278629e-01  7.6773767487775535e-01  7.5972218158046390e-01  7.5024630231311451e-01  7.3906917092185265e-01  7.2591336087437408e-01  7.1046232837070655e-01  6.9235926684988569e-01  6.7120841018493627e-01  6.4658018419235197e-01  6.1802195897974499e-01  5.8507638386507510e-01  5.4730920329590005e-01  5.0434779630807092e-01  4.5593017297204752e-01  4.0196162500386889e-01  3.4257280589112732e-01  2.7816939478900315e-01  2.0946099654408182e-01  1.3745722185312428e-01  6.3423251844373807e-02  -1.1204505731753909e-02  -8.4931942192566140e-02  -1.5633091512489436e-01  -2.2415095354394599e-01  -2.8740043999832438e-01  -3.4538731272627538e-01  -3.9771946443622619e-01  -4.4427310169625928e-01  -4.8514137413489100e-01  -5.2057559102182860e-01  -5.5092866488412784e-01  -5.7660674200846851e-01  -5.9803158460936756e-01  -6.1561380201603144e-01  -6.2973559520909028e-01  -6.4074108668860896e-01  -6.4893226855225228e-01  -6.5456885671778009e-01  -6.5787070373969359e-01  -6.5902178675548739e-01  -6.5817509737270696e-01  -6.5545799903266599e-01  -6.5097778588718358e-01  -6.4482728505598441e-01  -6.3709040304676812e-01  -6.2784753834559381e-01  -6.1718077568519292e-01  -6.0517875224402007e-01  -5.9194105063434599e-01  -5.7758193682594017e-01  -5.6223323234338152e-01  -5.4604609841667118e-01  -5.2919152353670096e-01  -5.1185935088225309e-01  -4.9425576000159477e-01  -4.7659922407545102e-01  -4.5911509015305574e-01  -4.4202905982198798e-01  -4.2555996377279132e-01  -4.0991230795898370e-01  -3.9526910785082014e-01  -3.8178551389409904e-01  -3.6958366727956149e-01  -3.5874911980968710e-01  -3.4932901978745101e-01  -3.4133212444720845e-01  -3.3473056450630367e-01  -3.2946317053446611e-01  -3.2544008202522956e-01  -3.2254830173975158e-01  -3.2065782976321561e-01  -3.1962801088063181e-01  -3.1931375099828180e-01  -3.1957129844636212e-01  -3.2026333904542342e-01  -3.2126321496576449e-01  -3.2245814221637747e-01  -3.2375136617068001e-01  -3.2506325562654825e-01  -3.2633139097734798e-01  -3.2750974928887450e-01  -3.2856712712666003e-01  -3.2948496987639125e-01  -3.3025479321080764e-01  -3.3087538780911030e-01  -3.3134999402241483e-01  -3.3168362849125665e-01  -3.3188077175297737e-01  -3.3194375283946842e-01  7.9574211286379248e-01  7.9557817041199097e-01  7.9506891236133237e-01  7.9420010130484586e-01  7.9294730714411688e-01  7.9127508094676891e-01  7.8913607867224933e-01  7.8646997944793162e-01  7.8320211534369122e-01  7.7924177480210965e-01  7.7448016137460518e-01  7.6878800038225792e-01  7.6201280152489759e-01  7.5397581456169993e-01  7.4446876655384564e-01  7.3325055248493032e-01  7.2004417754277394e-01  7.0453443049777897e-01  6.8636701206600037e-01  6.6515014905214354e-01  6.4046007302322716e-01  6.1185207309700029e-01  5.7887903187430556e-01  5.4111923632534875e-01  4.9821457119083934e-01  4.4991868828748882e-01  3.9615225122583997e-01  3.3705904516164964e-01  2.7305330427051727e-01  2.0484632659865226e-01  1.3344090486395579e-01  6.0086466817059411e-02  -1.3804109419293234e-02  -8.6765353151302502e-02  -1.5739924130078520e-01  -2.2448317059561110e-01  -2.8704814540027890e-01  -3.4441776837445603e-01  -3.9620832190945043e-01  -4.4229794317489235e-01  -4.8277674719850755e-01  -5.1788975524411884e-01  -5.4798192417889324e-01  -5.7345104746177011e-01  -5.9471103657775981e-01  -6.1216571091126892e-01  -6.2619183184344451e-01  -6.3712953255476457e-01  -6.4527824580272497e-01  -6.5089646988962169e-01  -6.5420406010838161e-01  -6.5538608235023788e-01  -6.5459756475783326e-01  -6.5196871433583448e-01  -6.4761032901437821e-01  -6.4161924076923194e-01  -6.3408368337353449e-01  -6.2508850018902329e-01  -6.1472010296610746e-01  -6.0307107082606259e-01  -5.9024424793563945e-01  -5.7635616738080830e-01  -5.6153960607728726e-01  -5.4594506965026801e-01  -5.2974102432377668e-01  -5.1311273970569582e-01  -4.9625968268766940e-01  -4.7939150417197002e-01  -4.6272277731120531e-01  -4.4646676428337068e-01  -4.3082859190991946e-01  -4.1599828896576835e-01  -4.0214416803604780e-01  -3.8940701683296364e-01  -3.7789550003433475e-01  -3.6768307180283050e-01  -3.5880657479388806e-01  -3.5126656913846954e-01  -3.4502930911868024e-01  -3.4003017750512371e-01  -3.3617830515827418e-01  -3.3336204975391359e-01  -3.3145498218643954e-01  -3.3032202971688823e-01  -3.2982544719922696e-01  -3.2983032699901221e-01  -3.3020940963319861e-01  -3.3084701603653216e-01  -3.3164198446713278e-01  -3.3250955677506594e-01  -3.3338221715216687e-01  -3.3420953936369496e-01  -3.3495714428835932e-01  -3.3560490732044124e-01  -3.3614458411803244e-01  -3.3657704293182683e-01  -3.3690930259132140e-01  -3.3715157914966953e-01  -3.3731454680278911e-01  -3.3740702977185050e-01  -3.3743436302205881e-01  7.8876741943201500e-01  7.8860805083311447e-01  7.8810831608005782e-01  7.8725298770121166e-01  7.8601648882575570e-01  7.8436214041860230e-01  7.8224126362255386e-01  7.7959207630665206e-01  7.7633832937239067e-01  7.7238764513087177e-01  7.6762953375715470e-01  7.6193307685975087e-01  7.5514428611623474e-01  7.4708317714563865e-01  7.3754065258497892e-01  7.2627537329891301e-01  7.1301092359684837e-01  6.9743375600183044e-01  6.7919264081429032e-01  6.5790064277422244e-01  6.3314097804620173e-01  6.0447840967720368e-01  5.7147800450596098e-01  5.3373291833665037e-01  4.9090216019144417e-01  4.4275776841141262e-01  3.8923838926436671e-01  3.3050307095460735e-01  2.6697586318692285e-01  1.9936978097096075e-01  1.2867933934443754e-01  5.6135230832427864e-02  -1.6877481415822647e-02  -8.8927095569352868e-02  -1.5865107610812609e-01  -2.2485966861753559e-01  -2.8661058575736975e-01  -3.4324598461520528e-01  -3.9439215820024109e-01  -4.3992964695038073e-01  -4.7994509992293199e-01  -5.1467620727152885e-01  -5.4445859567734300e-01  -5.6968023187733086e-01  -5.9074577324161659e-01  -6.0805102594646065e-01  -6.2196632836623988e-01  -6.3282710371625217e-01  -6.4092976575486715e-01  -6.4653137964523377e-01  -6.4985180680646026e-01  -6.5107739471307691e-01  -6.5036555873328850e-01  -6.4784982504874999e-01  -6.4364506152183998e-01  -6.3785272535777382e-01  -6.3056601338123752e-01  -6.2187482341084666e-01  -6.1187043328059720e-01  -6.0064978632457888e-01  -5.8831924690656578e-01  -5.7499766498270777e-01  -5.6081857275852354e-01  -5.4593133674022409e-01  -5.3050111100164576e-01  -5.1470748585808357e-01  -4.9874180018365111e-01  -4.8280318059811078e-01  -4.6709347734522855e-01  -4.5181137192786819e-01  -4.3714602087368537e-01  -4.2327065984215828e-01  -4.1033661285721207e-01  -3.9846812872985743e-01  -3.8775840322312738e-01  -3.7826704956872120e-01  -3.7001916392579209e-01  -3.6300601013797024e-01  -3.5718723264264624e-01  -3.5249440785627162e-01  -3.4883566943062994e-01  -3.4610109442055359e-01  -3.4416851549517913e-01  -3.4290942647056816e-01  -3.4219467083834548e-01  -3.4189964111569765e-01  -3.4190876609522736e-01  -3.4211911900948089e-01  -3.4244303832694933e-01  -3.4280971112031372e-01  -3.4316572419600416e-01  -3.4347463865963307e-01  -3.4371568810385811e-01  -3.4388173831802887e-01  -3.4397667671898191e-01  -3.4401242213372502e-01  -3.4400575998354893e-01  -3.4397521482826193e-01  -3.4393817282119088e-01  -3.4390846087078797e-01  -3.4389456867052809e-01  7.8071157793381718e-01  7.8055711988951271e-01  7.8006770744668730e-01  7.7922731561734748e-01  7.7800925244519425e-01  7.7637548776487553e-01  7.7427579078870967e-01  7.7164665195960169e-01  7.6840995509984733e-01  7.6447136902261559e-01  7.5971843572785347e-01  7.5401834467019013e-01  7.4721540303550660e-01  7.3912824637243968e-01  7.2954688983502214e-01  7.1822980678933179e-01  7.0490134879092969e-01  6.8924999867094316e-01  6.7092818245458874e-01  6.4955465137623969e-01  6.2472075658172566e-01  5.9600221467022219e-01  5.6297808843958663e-01  5.2525850851528388e-01  4.8252191245974096e-01  4.3456105948856466e-01  3.8133469938711800e-01  3.2301874779048195e-01  2.6004783648644719e-01  1.9313635086429429e-01  1.2326891405377448e-01  5.1654629633233529e-02  -2.0353113289984591e-02  -9.1360836780703225e-02  -1.6004603980028059e-01  -2.2525596263516159e-01  -2.8607838598664403e-01  -3.4187637741257948e-01  -3.9228755331019133e-01  -4.3719523426771628e-01  -4.7668224457077196e-01  -5.1097808485039653e-01  -5.4040792009546956e-01  -5.6534867475955730e-01  -5.8619459271771812e-01  -6.0333245588639151e-01  -6.1712536840371857e-01  -6.2790345277153248e-01  -6.3595973272440454e-01  -6.4154967445809552e-01  -6.4489316208363867e-01  -6.4617799606179538e-01  -6.4556427488555024e-01  -6.4318923208026135e-01  -6.3917225201888528e-01  -6.3361988663663071e-01  -6.2663075112996125e-01  -6.1830020047030143e-01  -6.0872468954055181e-01  -5.9800570652382035e-01  -5.8625314986022592e-01  -5.7358800130917265e-01  -5.6014413869668611e-01  -5.4606913828523851e-01  -5.3152394331914676e-01  -5.1668132458730032e-01  -5.0172312977111289e-01  -4.8683640588230137e-01  -4.7220857437864011e-01  -4.5802192989990109e-01  -4.4444780833105835e-01  -4.3164081673011651e-01  -4.1973352874817105e-01  -4.0883202182593975e-01  -3.9901256958718734e-01  -3.9031971229068640e-01  -3.8276582103800738e-01  -3.7633215990233793e-01  -3.7097134560287687e-01  -3.6661101577995248e-01  -3.6315845016080434e-01  -3.6050584656369067e-01  -3.5853593561099195e-01  -3.5712762197187220e-01  -3.5616136235848550e-01  -3.5552402711854819e-01  -3.5511303874337113e-01  -3.5483963288014297e-01  -3.5463114201750245e-01  -3.5443225616075819e-01  -3.5420526654640078e-01  -3.5392934643780855e-01  -3.5359896641236349e-01  -3.5322157960309214e-01  -3.5281474437996369e-01  -3.5240287710422075e-01  -3.5201384492911986e-01  -3.5167561720761020e-01  -3.5141319275603683e-01  -3.5124600664271755e-