<?xml version="1.0"?>
<VTKFile type="UnstructuredGrid"  version="0.1"  >
<UnstructuredGrid>
<Piece  NumberOfPoints="10201" NumberOfCells="20000">
<Points>
<DataArray  type="Float64"  NumberOfComponents="3"  format="ascii">0 0 0  0.25 0 0  0.5 0 0  0.75 0 0  1 0 0  1.25 0 0  1.5 0 0  1.75 0 0  2 0 0  2.25 0 0  2.5 0 0  2.75 0 0  3 0 0  3.25 0 0  3.5 0 0  3.75 0 0  4 0 0  4.25 0 0  4.5 0 0  4.75 0 0  5 0 0  5.25 0 0  5.5 0 0  5.75 0 0  6 0 0  6.25 0 0  6.5 0 0  6.75 0 0  7 0 0  7.25 0 0  7.5 0 0  7.75 0 0  8 0 0  8.25 0 0  8.5 0 0  8.75 0 0  9 0 0  9.25 0 0  9.5 0 0  9.75 0 0  10 0 0  10.25 0 0  10.5 0 0  10.75 0 0  11 0 0  11.25 0 0  11.5 0 0  11.75 0 0  12 0 0  12.25 0 0  12.5 0 0  12.75 0 0  13 0 0  13.25 0 0  13.5 0 0  13.75 0 0  14 0 0  14.25 0 0  14.5 0 0  14.75 0 0  15 0 0  15.25 0 0  15.5 0 0  15.75 0 0  16 0 0  16.25 0 0  16.5 0 0  16.75 0 0  17 0 0  17.25 0 0  17.5 0 0  17.75 0 0  18 0 0  18.25 0 0  18.5 0 0  18.75 0 0  19 0 0  19.25 0 0  19.5 0 0  19.75 0 0  20 0 0  20.25 0 0  20.5 0 0  20.75 0 0  21 0 0  21.25 0 0  21.5 0 0  21.75 0 0  22 0 0  22.25 0 0  22.5 0 0  22.75 0 0  23 0 0  23.25 0 0  23.5 0 0  23.75 0 0  24 0 0  24.25 0 0  24.5 0 0  24.75 0 0  25 0 0  0 0.25 0  0.25 0.25 0  0.5 0.25 0  0.75 0.25 0  1 0.25 0  1.25 0.25 0  1.5 0.25 0  1.75 0.25 0  2 0.25 0  2.25 0.25 0  2.5 0.25 0  2.75 0.25 0  3 0.25 0  3.25 0.25 0  3.5 0.25 0  3.75 0.25 0  4 0.25 0  4.25 0.25 0  4.5 0.25 0  4.75 0.25 0  5 0.25 0  5.25 0.25 0  5.5 0.25 0  5.75 0.25 0  6 0.25 0  6.25 0.25 0  6.5 0.25 0  6.75 0.25 0  7 0.25 0  7.25 0.25 0  7.5 0.25 0  7.75 0.25 0  8 0.25 0  8.25 0.25 0  8.5 0.25 0  8.75 0.25 0  9 0.25 0  9.25 0.25 0  9.5 0.25 0  9.75 0.25 0  10 0.25 0  10.25 0.25 0  10.5 0.25 0  10.75 0.25 0  11 0.25 0  11.25 0.25 0  11.5 0.25 0  11.75 0.25 0  12 0.25 0  12.25 0.25 0  12.5 0.25 0  12.75 0.25 0  13 0.25 0  13.25 0.25 0  13.5 0.25 0  13.75 0.25 0  14 0.25 0  14.25 0.25 0  14.5 0.25 0  14.75 0.25 0  15 0.25 0  15.25 0.25 0  15.5 0.25 0  15.75 0.25 0  16 0.25 0  16.25 0.25 0  16.5 0.25 0  16.75 0.25 0  17 0.25 0  17.25 0.25 0  17.5 0.25 0  17.75 0.25 0  18 0.25 0  18.25 0.25 0  18.5 0.25 0  18.75 0.25 0  19 0.25 0  19.25 0.25 0  19.5 0.25 0  19.75 0.25 0  20 0.25 0  20.25 0.25 0  20.5 0.25 0  20.75 0.25 0  21 0.25 0  21.25 0.25 0  21.5 0.25 0  21.75 0.25 0  22 0.25 0  22.25 0.25 0  22.5 0.25 0  22.75 0.25 0  23 0.25 0  23.25 0.25 0  23.5 0.25 0  23.75 0.25 0  24 0.25 0  24.25 0.25 0  24.5 0.25 0  24.75 0.25 0  25 0.25 0  0 0.5 0  0.25 0.5 0  0.5 0.5 0  0.75 0.5 0  1 0.5 0  1.25 0.5 0  1.5 0.5 0  1.75 0.5 0  2 0.5 0  2.25 0.5 0  2.5 0.5 0  2.75 0.5 0  3 0.5 0  3.25 0.5 0  3.5 0.5 0  3.75 0.5 0  4 0.5 0  4.25 0.5 0  4.5 0.5 0  4.75 0.5 0  5 0.5 0  5.25 0.5 0  5.5 0.5 0  5.75 0.5 0  6 0.5 0  6.25 0.5 0  6.5 0.5 0  6.75 0.5 0  7 0.5 0  7.25 0.5 0  7.5 0.5 0  7.75 0.5 0  8 0.5 0  8.25 0.5 0  8.5 0.5 0  8.75 0.5 0  9 0.5 0  9.25 0.5 0  9.5 0.5 0  9.75 0.5 0  10 0.5 0  10.25 0.5 0  10.5 0.5 0  10.75 0.5 0  11 0.5 0  11.25 0.5 0  11.5 0.5 0  11.75 0.5 0  12 0.5 0  12.25 0.5 0  12.5 0.5 0  12.75 0.5 0  13 0.5 0  13.25 0.5 0  13.5 0.5 0  13.75 0.5 0  14 0.5 0  14.25 0.5 0  14.5 0.5 0  14.75 0.5 0  15 0.5 0  15.25 0.5 0  15.5 0.5 0  15.75 0.5 0  16 0.5 0  16.25 0.5 0  16.5 0.5 0  16.75 0.5 0  17 0.5 0  17.25 0.5 0  17.5 0.5 0  17.75 0.5 0  18 0.5 0  18.25 0.5 0  18.5 0.5 0  18.75 0.5 0  19 0.5 0  19.25 0.5 0  19.5 0.5 0  19.75 0.5 0  20 0.5 0  20.25 0.5 0  20.5 0.5 0  20.75 0.5 0  21 0.5 0  21.25 0.5 0  21.5 0.5 0  21.75 0.5 0  22 0.5 0  22.25 0.5 0  22.5 0.5 0  22.75 0.5 0  23 0.5 0  23.25 0.5 0  23.5 0.5 0  23.75 0.5 0  24 0.5 0  24.25 0.5 0  24.5 0.5 0  24.75 0.5 0  25 0.5 0  0 0.75 0  0.25 0.75 0  0.5 0.75 0  0.75 0.75 0  1 0.75 0  1.25 0.75 0  1.5 0.75 0  1.75 0.75 0  2 0.75 0  2.25 0.75 0  2.5 0.75 0  2.75 0.75 0  3 0.75 0  3.25 0.75 0  3.5 0.75 0  3.75 0.75 0  4 0.75 0  4.25 0.75 0  4.5 0.75 0  4.75 0.75 0  5 0.75 0  5.25 0.75 0  5.5 0.75 0  5.75 0.75 0  6 0.75 0  6.25 0.75 0  6.5 0.75 0  6.75 0.75 0  7 0.75 0  7.25 0.75 0  7.5 0.75 0  7.75 0.75 0  8 0.75 0  8.25 0.75 0  8.5 0.75 0  8.75 0.75 0  9 0.75 0  9.25 0.75 0  9.5 0.75 0  9.75 0.75 0  10 0.75 0  10.25 0.75 0  10.5 0.75 0  10.75 0.75 0  11 0.75 0  11.25 0.75 0  11.5 0.75 0  11.75 0.75 0  12 0.75 0  12.25 0.75 0  12.5 0.75 0  12.75 0.75 0  13 0.75 0  13.25 0.75 0  13.5 0.75 0  13.75 0.75 0  14 0.75 0  14.25 0.75 0  14.5 0.75 0  14.75 0.75 0  15 0.75 0  15.25 0.75 0  15.5 0.75 0  15.75 0.75 0  16 0.75 0  16.25 0.75 0  16.5 0.75 0  16.75 0.75 0  17 0.75 0  17.25 0.75 0  17.5 0.75 0  17.75 0.75 0  18 0.75 0  18.25 0.75 0  18.5 0.75 0  18.75 0.75 0  19 0.75 0  19.25 0.75 0  19.5 0.75 0  19.75 0.75 0  20 0.75 0  20.25 0.75 0  20.5 0.75 0  20.75 0.75 0  21 0.75 0  21.25 0.75 0  21.5 0.75 0  21.75 0.75 0  22 0.75 0  22.25 0.75 0  22.5 0.75 0  22.75 0.75 0  23 0.75 0  23.25 0.75 0  23.5 0.75 0  23.75 0.75 0  24 0.75 0  24.25 0.75 0  24.5 0.75 0  24.75 0.75 0  25 0.75 0  0 1 0  0.25 1 0  0.5 1 0  0.75 1 0  1 1 0  1.25 1 0  1.5 1 0  1.75 1 0  2 1 0  2.25 1 0  2.5 1 0  2.75 1 0  3 1 0  3.25 1 0  3.5 1 0  3.75 1 0  4 1 0  4.25 1 0  4.5 1 0  4.75 1 0  5 1 0  5.25 1 0  5.5 1 0  5.75 1 0  6 1 0  6.25 1 0  6.5 1 0  6.75 1 0  7 1 0  7.25 1 0  7.5 1 0  7.75 1 0  8 1 0  8.25 1 0  8.5 1 0  8.75 1 0  9 1 0  9.25 1 0  9.5 1 0  9.75 1 0  10 1 0  10.25 1 0  10.5 1 0  10.75 1 0  11 1 0  11.25 1 0  11.5 1 0  11.75 1 0  12 1 0  12.25 1 0  12.5 1 0  12.75 1 0  13 1 0  13.25 1 0  13.5 1 0  13.75 1 0  14 1 0  14.25 1 0  14.5 1 0  14.75 1 0  15 1 0  15.25 1 0  15.5 1 0  15.75 1 0  16 1 0  16.25 1 0  16.5 1 0  16.75 1 0  17 1 0  17.25 1 0  17.5 1 0  17.75 1 0  18 1 0  18.25 1 0  18.5 1 0  18.75 1 0  19 1 0  19.25 1 0  19.5 1 0  19.75 1 0  20 1 0  20.25 1 0  20.5 1 0  20.75 1 0  21 1 0  21.25 1 0  21.5 1 0  21.75 1 0  22 1 0  22.25 1 0  22.5 1 0  22.75 1 0  23 1 0  23.25 1 0  23.5 1 0  23.75 1 0  24 1 0  24.25 1 0  24.5 1 0  24.75 1 0  25 1 0  0 1.25 0  0.25 1.25 0  0.5 1.25 0  0.75 1.25 0  1 1.25 0  1.25 1.25 0  1.5 1.25 0  1.75 1.25 0  2 1.25 0  2.25 1.25 0  2.5 1.25 0  2.75 1.25 0  3 1.25 0  3.25 1.25 0  3.5 1.25 0  3.75 1.25 0  4 1.25 0  4.25 1.25 0  4.5 1.25 0  4.75 1.25 0  5 1.25 0  5.25 1.25 0  5.5 1.25 0  5.75 1.25 0  6 1.25 0  6.25 1.25 0  6.5 1.25 0  6.75 1.25 0  7 1.25 0  7.25 1.25 0  7.5 1.25 0  7.75 1.25 0  8 1.25 0  8.25 1.25 0  8.5 1.25 0  8.75 1.25 0  9 1.25 0  9.25 1.25 0  9.5 1.25 0  9.75 1.25 0  10 1.25 0  10.25 1.25 0  10.5 1.25 0  10.75 1.25 0  11 1.25 0  11.25 1.25 0  11.5 1.25 0  11.75 1.25 0  12 1.25 0  12.25 1.25 0  12.5 1.25 0  12.75 1.25 0  13 1.25 0  13.25 1.25 0  13.5 1.25 0  13.75 1.25 0  14 1.25 0  14.25 1.25 0  14.5 1.25 0  14.75 1.25 0  15 1.25 0  15.25 1.25 0  15.5 1.25 0  15.75 1.25 0  16 1.25 0  16.25 1.25 0  16.5 1.25 0  16.75 1.25 0  17 1.25 0  17.25 1.25 0  17.5 1.25 0  17.75 1.25 0  18 1.25 0  18.25 1.25 0  18.5 1.25 0  18.75 1.25 0  19 1.25 0  19.25 1.25 0  19.5 1.25 0  19.75 1.25 0  20 1.25 0  20.25 1.25 0  20.5 1.25 0  20.75 1.25 0  21 1.25 0  21.25 1.25 0  21.5 1.25 0  21.75 1.25 0  22 1.25 0  22.25 1.25 0  22.5 1.25 0  22.75 1.25 0  23 1.25 0  23.25 1.25 0  23.5 1.25 0  23.75 1.25 0  24 1.25 0  24.25 1.25 0  24.5 1.25 0  24.75 1.25 0  25 1.25 0  0 1.5 0  0.25 1.5 0  0.5 1.5 0  0.75 1.5 0  1 1.5 0  1.25 1.5 0  1.5 1.5 0  1.75 1.5 0  2 1.5 0  2.25 1.5 0  2.5 1.5 0  2.75 1.5 0  3 1.5 0  3.25 1.5 0  3.5 1.5 0  3.75 1.5 0  4 1.5 0  4.25 1.5 0  4.5 1.5 0  4.75 1.5 0  5 1.5 0  5.25 1.5 0  5.5 1.5 0  5.75 1.5 0  6 1.5 0  6.25 1.5 0  6.5 1.5 0  6.75 1.5 0  7 1.5 0  7.25 1.5 0  7.5 1.5 0  7.75 1.5 0  8 1.5 0  8.25 1.5 0  8.5 1.5 0  8.75 1.5 0  9 1.5 0  9.25 1.5 0  9.5 1.5 0  9.75 1.5 0  10 1.5 0  10.25 1.5 0  10.5 1.5 0  10.75 1.5 0  11 1.5 0  11.25 1.5 0  11.5 1.5 0  11.75 1.5 0  12 1.5 0  12.25 1.5 0  12.5 1.5 0  12.75 1.5 0  13 1.5 0  13.25 1.5 0  13.5 1.5 0  13.75 1.5 0  14 1.5 0  14.25 1.5 0  14.5 1.5 0  14.75 1.5 0  15 1.5 0  15.25 1.5 0  15.5 1.5 0  15.75 1.5 0  16 1.5 0  16.25 1.5 0  16.5 1.5 0  16.75 1.5 0  17 1.5 0  17.25 1.5 0  17.5 1.5 0  17.75 1.5 0  18 1.5 0  18.25 1.5 0  18.5 1.5 0  18.75 1.5 0  19 1.5 0  19.25 1.5 0  19.5 1.5 0  19.75 1.5 0  20 1.5 0  20.25 1.5 0  20.5 1.5 0  20.75 1.5 0  21 1.5 0  21.25 1.5 0  21.5 1.5 0  21.75 1.5 0  22 1.5 0  22.25 1.5 0  22.5 1.5 0  22.75 1.5 0  23 1.5 0  23.25 1.5 0  23.5 1.5 0  23.75 1.5 0  24 1.5 0  24.25 1.5 0  24.5 1.5 0  24.75 1.5 0  25 1.5 0  0 1.75 0  0.25 1.75 0  0.5 1.75 0  0.75 1.75 0  1 1.75 0  1.25 1.75 0  1.5 1.75 0  1.75 1.75 0  2 1.75 0  2.25 1.75 0  2.5 1.75 0  2.75 1.75 0  3 1.75 0  3.25 1.75 0  3.5 1.75 0  3.75 1.75 0  4 1.75 0  4.25 1.75 0  4.5 1.75 0  4.75 1.75 0  5 1.75 0  5.25 1.75 0  5.5 1.75 0  5.75 1.75 0  6 1.75 0  6.25 1.75 0  6.5 1.75 0  6.75 1.75 0  7 1.75 0  7.25 1.75 0  7.5 1.75 0  7.75 1.75 0  8 1.75 0  8.25 1.75 0  8.5 1.75 0  8.75 1.75 0  9 1.75 0  9.25 1.75 0  9.5 1.75 0  9.75 1.75 0  10 1.75 0  10.25 1.75 0  10.5 1.75 0  10.75 1.75 0  11 1.75 0  11.25 1.75 0  11.5 1.75 0  11.75 1.75 0  12 1.75 0  12.25 1.75 0  12.5 1.75 0  12.75 1.75 0  13 1.75 0  13.25 1.75 0  13.5 1.75 0  13.75 1.75 0  14 1.75 0  14.25 1.75 0  14.5 1.75 0  14.75 1.75 0  15 1.75 0  15.25 1.75 0  15.5 1.75 0  15.75 1.75 0  16 1.75 0  16.25 1.75 0  16.5 1.75 0  16.75 1.75 0  17 1.75 0  17.25 1.75 0  17.5 1.75 0  17.75 1.75 0  18 1.75 0  18.25 1.75 0  18.5 1.75 0  18.75 1.75 0  19 1.75 0  19.25 1.75 0  19.5 1.75 0  19.75 1.75 0  20 1.75 0  20.25 1.75 0  20.5 1.75 0  20.75 1.75 0  21 1.75 0  21.25 1.75 0  21.5 1.75 0  21.75 1.75 0  22 1.75 0  22.25 1.75 0  22.5 1.75 0  22.75 1.75 0  23 1.75 0  23.25 1.75 0  23.5 1.75 0  23.75 1.75 0  24 1.75 0  24.25 1.75 0  24.5 1.75 0  24.75 1.75 0  25 1.75 0  0 2 0  0.25 2 0  0.5 2 0  0.75 2 0  1 2 0  1.25 2 0  1.5 2 0  1.75 2 0  2 2 0  2.25 2 0  2.5 2 0  2.75 2 0  3 2 0  3.25 2 0  3.5 2 0  3.75 2 0  4 2 0  4.25 2 0  4.5 2 0  4.75 2 0  5 2 0  5.25 2 0  5.5 2 0  5.75 2 0  6 2 0  6.25 2 0  6.5 2 0  6.75 2 0  7 2 0  7.25 2 0  7.5 2 0  7.75 2 0  8 2 0  8.25 2 0  8.5 2 0  8.75 2 0  9 2 0  9.25 2 0  9.5 2 0  9.75 2 0  10 2 0  10.25 2 0  10.5 2 0  10.75 2 0  11 2 0  11.25 2 0 
[...]
<PointData  Scalars="f_26"> 
<DataArray  type="Float64"  Name="f_26"  format="ascii">9.9235594985990361e-01  9.9232957045518033e-01  9.9226680999306771e-01  9.9216217133745421e-01  9.9200979344811346e-01  9.9180173600225718e-01  9.9152705125844998e-01  9.9117082238665632e-01  9.9071290510738574e-01  9.9012620074169877e-01  9.8937426756396607e-01  9.8840801414269563e-01  9.8716112355248797e-01  9.8554372716408500e-01  9.8343367377349411e-01  9.8066451752118289e-01  9.7700907633616030e-01  9.7215710933478039e-01  9.6568538475075361e-01  9.5701829977496844e-01  9.4537756577599630e-01  9.2972085303391627e-01  9.0867268393955858e-01  8.8045778102007943e-01  8.4285934529484285e-01  7.9324339082485984e-01  7.2871247836648623e-01  6.4646573925990414e-01  5.4441991601375872e-01  4.2205218239907744e-01  2.8124923621531328e-01  1.2676433015101965e-01  -3.4127324250752343e-02  -1.9287875383654141e-01  -3.4142599483658642e-01  -4.7372779901041495e-01  -5.8652050856481708e-01  -6.7919243386383010e-01  -7.5308682529163617e-01  -8.1064961572725225e-01  -8.5471216937438876e-01  -8.8801746448175678e-01  -9.1297322312098150e-01  -9.3156593614236805e-01  -9.4536854300084872e-01  -9.5559218686502034e-01  -9.6315174217988386e-01  -9.6872932605293516e-01  -9.7282908874649776e-01  -9.7582154329207205e-01  -9.7797805411091976e-01  -9.7949700474853130e-01  -9.8052333122544810e-01  -9.8116295214593263e-01  -9.8149336340537185e-01  -9.8157139464288778e-01  -9.8143888713730898e-01  -9.8112685993008131e-01  -9.8065858086541613e-01  -9.8005184548091895e-01  -9.7932068185217813e-01  -9.7847663686748620e-01  -9.7752975346628157e-01  -9.7648931484239687e-01  -9.7536440730291762e-01  -9.7416433607310282e-01  -9.7289891620260749e-01  -9.7157865269682864e-01  -9.7021481923652975e-01  -9.6881944272722165e-01  -9.6740520090670601e-01  -9.6598524183255807e-01  -9.6457293675187983e-01  -9.6318158107018659e-01  -9.6182406130879139e-01  -9.6051250850696190e-01  -9.5925795998786223e-01  -9.5807005139094881e-01  -9.5695675917955159e-01  -9.5592421047267173e-01  -9.5497657225294352e-01  -9.5411602618721780e-01  -9.5334282901670053e-01  -9.5265545234370108e-01  -9.5205079025121908e-01  -9.5152441902819840e-01  -9.5107089066728789e-01  -9.5068404089524539e-01  -9.5035729324256124e-01  -9.5008394285110731e-01  -9.4985740703451227e-01  -9.4967143366694018e-01  -9.4952026291295000e-01  -9.4939874234684463e-01  -9.4930240010550782e-01  -9.4922748597433249e-01  -9.4917099887615131e-01  -9.4913074152904875e-01  -9.4910552219444755e-01  -9.4909595155539028e-01  -9.4910776762418769e-01  9.9232724544833872e-01  9.9230576186811426e-01  9.9224400164688820e-01  9.9213937418791143e-01  9.9198665188788393e-01  9.9177802680164051e-01  9.9150255671448195e-01  9.9114528581848249e-01  9.9068600323163225e-01  9.9009751591871520e-01  9.8934325367780052e-01  9.8837395211502843e-01  9.8712306262484817e-01  9.8550040775429149e-01  9.8338342763546627e-01  9.8060514190831871e-01  9.7693768225277755e-01  9.7206995218636849e-01  9.6557770285466293e-01  9.5688421847230909e-01  9.4521018010463920e-01  9.2951268578305357e-01  9.0841682052318007e-01  8.8015006065985013e-01  8.4250191030056687e-01  7.9284941732494507e-01  7.2831074387381012e-01  6.4610185760425920e-01  5.4414967751357701e-01  4.2192405261700999e-01  2.8128001525319479e-01  1.2692158406488857e-01  -3.3920205455904344e-02  -1.9271228317774630e-01  -3.4136666305881858e-01  -4.7379633312673164e-01  -5.8669572423473915e-01  -6.7943127513714263e-01  -7.5334507857601596e-01  -8.1089413261593846e-01  -8.5492398590004592e-01  -8.8818945658936876e-01  -9.1310600859392632e-01  -9.3166417373370181e-01  -9.4543836025664951e-01  -9.5563969461853748e-01  -9.6318233125991215e-01  -9.6874743825646570e-01  -9.7283823594573882e-01  -9.7582443403486174e-01  -9.7797675044837462e-01  -9.7949307196134838e-01  -9.8051796564984195e-01  -9.8115708379039879e-01  -9.8148773521113619e-01  -9.8156662206560297e-01  -9.8143550194651985e-01  -9.8112534166901955e-01  -9.8065937875584264e-01  -9.8005539291230170e-01  -9.7932740504771576e-01  -9.7848695889485859e-01  -9.7754409445426116e-01  -9.7650808906066777e-01  -9.7538801764368255e-01  -9.7419316642126308e-01  -9.7293332217900241e-01  -9.7161895128926168e-01  -9.7026127787949557e-01  -9.6887226843731833e-01  -9.6746453011174971e-01  -9.6605113153561106e-01  -9.6464535763731196e-01  -9.6326041308259014e-01  -9.6190909211750364e-01  -9.6060343511517976e-01  -9.5935439356696306e-01  -9.5817152523250593e-01  -9.5706273947623732e-01  -9.5603410948083312e-01  -9.5508976326740080e-01  -9.5423185968158208e-01  -9.5346064927354812e-01  -9.5277461391605667e-01  -9.5217067365297359e-01  -9.5164444513591429e-01  -9.5119053341719506e-01  -9.5080283796486564e-01  -9.5047485450510427e-01  -9.5019995647268085e-01  -9.4997164313948934e-01  -9.4978374551143963e-01  -9.4963058544904366e-01  -9.4950708784288484e-01  -9.4940884983060791e-01  -9.4933217486772414e-01  -9.4927408274804925e-01  -9.4923230729003993e-01  -9.4920527622362560e-01  -9.4919194107133253e-01  -9.4919056521946110e-01  9.9225909002669765e-01  9.9223872929493206e-01  9.9217742434280665e-01  9.9207259587001184e-01  9.9191918209891627e-01  9.9170943814874812e-01  9.9143240684188827e-01  9.9107306621415758e-01  9.9061109759317756e-01  9.9001915719263434e-01  9.8926047312475640e-01  9.8828551525116248e-01  9.8702738704105131e-01  9.8539545751213320e-01  9.8326657881957125e-01  9.8047301474217352e-01  9.7678593817066806e-01  9.7189306140487741e-01  9.6536870244466233e-01  9.5663450709906594e-01  9.4490943843785613e-01  9.2914907372640321e-01  9.0797767691057840e-01  8.7962338718634903e-01  8.4187888504693198e-01  7.9212792693694933e-01  7.2749931135648382e-01  6.4522239924017166e-01  5.4323673127069760e-01  4.2101857085341865e-01  2.8041852116339239e-01  1.2612561728402860e-01  -3.4647579652177463e-02  -1.9338006907072067e-01  -3.4198432509408416e-01  -4.7436539024640179e-01  -5.8720915262042805e-01  -6.7987869322012850e-01  -7.5371868969473843e-01  -8.1119200077248277e-01  -8.5515018136831433e-01  -8.8835232169975753e-01  -9.1321595815210455e-01  -9.3173188427439579e-01  -9.4547362371688703e-01  -9.5565087328608245e-01  -9.6317623162681343e-01  -9.6872942464792866e-01  -9.7281245230241531e-01  -9.7579405266620811e-01  -9.7794420499337265e-01  -9.7946025645377577e-01  -9.8048639547702421e-01  -9.8112802112788533e-01  -9.8146228414377346e-01  -9.8154579903512673e-01  -9.8142028658164915e-01  -9.8111671211075424e-01  -9.8065833461964480e-01  -9.8006296817924321e-01  -9.7934467250219770e-01  -9.7851502723486183e-01  -9.7758409887914977e-01  -9.7656117597195002e-01  -9.7545532405417568e-01  -9.7427579473499115e-01  -9.7303231115337463e-01  -9.7173524419549673e-01  -9.7039568910658569e-01  -9.6902545000608575e-01  -9.6763693974454779e-01  -9.6624300403127816e-01  -9.6485668130233815e-01  -9.6349091284909760e-01  -9.6215822072963986e-01  -9.6087037339530657e-01  -9.5963806030380472e-01  -9.5847059670051205e-01  -9.5737567804341572e-01  -9.5635920023961685e-01  -9.5542515717566745e-01  -9.5457562136614260e-01  -9.5381080745040303e-01  -9.5312921232865644e-01  -9.5252782051366613e-01  -9.5200235925475329e-01  -9.5154758548433316e-01  -9.5115758578057941e-01  -9.5082607128706242e-01  -9.5054665167748453e-01  -9.5031307548083233e-01  -9.5011942800211313e-01  -9.4996028227703655e-01  -9.4983080258068131e-01  -9.4972680354903372e-01  -9.4964477038154704e-01  -9.4958184559970771e-01  -9.4953578191843591e-01  -9.4950483930024610e-01  -9.4948754747224273e-01  -9.4948217738309348e-01  9.9214980562773658e-01  9.9212964788260327e-01  9.9206824171012464e-01  9.9196280844544937e-01  9.9180824836639403e-01  9.9159678561368481e-01  9.9131739753858128e-01  9.9095495370686359e-01  9.9048897968014660e-01  9.8989192124468706e-01  9.8912672941914059e-01  9.8814351305537873e-01  9.8687490751041629e-01  9.8522967665165861e-01  9.8308389312009925e-01  9.8026882220653078e-01  9.7655436930310791e-01  9.7162666003397746e-01  9.6505806765350499e-01  9.5626792890848145e-01  9.4447259607955258e-01  9.2862492084370207e-01  9.0734671319187543e-01  8.7886459910535208e-01  8.4097169302373342e-01  7.9105542694766595e-01  7.2625283219628167e-01  6.4380681033307008e-01  5.4167507802704840e-01  4.1935387881699454e-01  2.7871076221077112e-01  1.2444348713179632e-01  -3.6237787529716445e-02  -1.9482449564631510e-01  -3.4324729237053964e-01  -4.7543026471133959e-01  -5.8807580687197136e-01  -6.8055943065182956e-01  -7.5423388662778568e-01  -8.1156613254197096e-01  -8.5540859889121901e-01  -8.8851895848918161e-01  -9.1331196658450564e-01  -9.3177505180791942e-01  -9.4547834681534548e-01  -9.5562846748397146e-01  -9.6313540042162837e-01  -9.6867676680634318e-01  -9.7275293769184645e-01  -9.7573143367946713e-01  -9.7788135405231746e-01  -9.7939943297061838e-01  -9.8042945149052996e-01  -9.8107655646975200e-01  -9.8141776141900083e-01  -9.8150962716138446e-01  -9.8139387983022774e-01  -9.8110152988402755e-01  -9.8065590574323958e-01  -9.8007490232901540e-01  -9.7937266052231631e-01  -9.7856083150840723e-01  -9.7764953455552983e-01  -9.7664808370519107e-01  -9.7556553493300524e-01  -9.7441108825940459e-01  -9.7319436740008769e-01  -9.7192559167847847e-01  -9.7061565023498941e-01  -9.6927608642122631e-01  -9.6791900012803489e-01  -9.6655687716710315e-01  -9.6520235720242653e-01  -9.6386795458319841e-01  -9.6256574922345839e-01  -9.6130706688493850e-01  -9.6010216939286619e-01  -9.5895997511347442e-01  -9.5788782827503982e-01  -9.5689133244406310e-01  -9.5597425889532617e-01  -9.5513853513259794e-01  -9.5438431294077641e-01  -9.5371010964699543e-01  -9.5311301127975889e-01  -9.5258892248902671e-01  -9.5213284572726453e-01  -9.5173917141880815e-01  -9.5140196161509372e-01  -9.5111521174728997e-01  -9.5087307823333345e-01  -9.5067006349216987e-01  -9.5050115395339230e-01  -9.5036191050655883e-01  -9.5024851407155220e-01  -9.5015777105867472e-01  -9.5008708366658512e-01  -9.5003438721582145e-01  -9.4999805094768108e-01  -9.4997673828789519e-01  -9.4996927420658939e-01  9.9199996886608066e-01  9.9197973128440220e-01  9.9191784801381433e-01  9.9181140459087469e-01  9.9165521236147314e-01  9.9144140940339143e-01  9.9115886109141305e-01  9.9079228360120886e-01  9.9032099630487280e-01  9.8971717339516618e-01  9.8894341240744577e-01  9.8794936479325912e-01  9.8666707556691791e-01  9.8500454780860236e-01  9.8283687556177601e-01  9.7999406960978330e-01  9.7624443660321414e-01  9.7127208408880406e-01  9.6464687505500923e-01  9.5578509201480399e-01  9.4389949321551880e-01  9.2793891581628851e-01  9.0652106150011347e-01  8.7786901714673693e-01  8.3977407735002352e-01  7.8962532376838435e-01  7.2456719242298961e-01  6.4185808396221644e-01  5.3948055585151244e-01  4.1696343872402991e-01  2.7620867801923371e-01  1.2194042726188220e-01  -3.8622724759617130e-02  -1.9698627464588933e-01  -3.4511325808993093e-01  -4.7696776729291074e-01  -5.8928854872683134e-01  -6.8147688071490908e-01  -7.5489922741272097e-01  -8.1202640630307721e-01  -8.5570831194895636e-01  -8.8869681215106955e-01  -9.1339978816761380e-01  -9.3179801527571904e-01  -9.4545581378149957e-01  -9.5557503258077436e-01  -9.6306191579157108e-01  -9.6859124274799957e-01  -9.7266128656366324e-01  -9.7563806018976429e-01  -9.7778961090735761e-01  -9.7931196564564382e-01  -9.8034845515995661e-01  -9.8100396502716625e-01  -9.8135538471531425e-01  -9.8145924891629055e-01  -9.8135732547960730e-01  -9.8108071101805716e-01  -9.8065284575253031e-01  -9.8009174634782115e-01  -9.7941167166634879e-01  -9.7862437468292529e-01  -9.7774004870029796e-01  -9.7676804319942045e-01  -9.7571740096432813e-01  -9.7459725122660301e-01  -9.7341708182712106e-01  -9.7218690561852339e-01  -9.7091733168110805e-01  -9.6961954975114473e-01  -9.6830523602651541e-01  -9.6698638972414319e-01  -9.6567511192130062e-01  -9.6438334080818511e-01  -9.6312255999610408e-01  -9.6190349847243872e-01  -9.6073584174625271e-01  -9.5962797337884687e-01  -9.5858676429130485e-01  -9.5761742401888994e-01  -9.5672342365762930e-01  -9.5590649499900560e-01  -9.5516670476245069e-01  -9.5450259744544974e-01  -9.5391139562455896e-01  -9.5338924297387784e-01  -9.5293147309838178e-01  -9.5253288662267110e-01  -9.5218801978257361e-01  -9.5189138984701649e-01  -9.5163770575365170e-01  -9.5142203601183151e-01  -9.5123992982215255e-01  -9.5108749109669344e-01  -9.5096140827191777e-01  -9.5085894516023706e-01  -9.5077789938470758e-01  -9.5071653546806345e-01  -9.5067350134985174e-01  -9.5064774639710703e-01  -9.5063848921031469e-01  9.9181114173363061e-01  9.9179069879831516e-01  9.9172806852933804e-01  9.9162024548698402e-01  9.9146194193026116e-01  9.9124517957524028e-01  9.9095867501786827e-01  9.9058694921387513e-01  9.9010906598528081e-01  9.8949686751345090e-01  9.8871252233382112e-01  9.8770512904924368e-01  9.8640602082411843e-01  9.8472228434207398e-01  9.8252783460150472e-01  9.7965116816764208e-01  9.7585865460176469e-01  9.7083194058518274e-01  9.6413779796534715e-01  9.5518869406807871e-01  9.4319280416416551e-01  9.2709368961199945e-01  9.0550339331321872e-01  8.7663968339106202e-01  8.3829024858400658e-01  7.8784453480664129e-01  7.2245450409215362e-01  6.3939687755034091e-01  5.3668591086248685e-01  4.1389444907783951e-01  2.7297341357700228e-01  1.1868712740937065e-01  -4.1729792348044345e-02  -1.9979934779225411e-01  -3.4752906575990666e-01  -4.7894020429080986e-01  -5.9082409161132077e-01  -6.8261895696097674e-01  -7.5571010289287499e-01  -8.1257252768637478e-01  -8.5605113320333848e-01  -8.8888848789702879e-01  -9.1348215412049361e-01  -9.3180336024485511e-01  -9.4540839864433479e-01  -9.5549275379802701e-01  -9.6295782310651157e-01  -9.6847480492489391e-01  -9.7253939343248430e-01  -9.7551579029414714e-01  -9.7767080687109675e-01  -9.7919965890207017e-01  -9.8024517592895899e-01  -9.8091196630833433e-01  -9.8127680233138714e-01  -9.8139621392464182e-01  -9.8131204069236977e-01  -9.8105549984167528e-01  -9.8065017891506889e-01  -9.8011425016480602e-01  -9.7946212016358869e-01  -9.7870566703670370e-01  -9.7785517298633773e-01  -9.7692002729608141e-01  -9.7590925157800290e-01  -9.7483188234765017e-01  -9.7369723443008183e-01  -9.7251506103124064e-01  -9.7129562169535733e-01  -9.7004966715610785e-01  -9.6878834973522443e-01  -9.6752306895350437e-01  -9.6626526391101186e-01  -9.6502616627564952e-01  -9.6381652990522593e-01  -9.6264635476090710e-01  -9.6152462346236800e-01  -9.6045906831235128e-01  -9.5945598475488747e-01  -9.5852010407135535e-01  -9.5765453387529831e-01  -9.5686076999821756e-01  -9.5613877812017356e-01  -9.5548713848396594e-01  -9.5490324270541693e-01  -9.5438352843441987e-01  -9.5392373568292987e-01  -9.5351916811776005e-01  -9.5316494346917058e-01  -9.5285621925226627e-01  -9.5258838296165149e-01  -9.5235719944675712e-01  -9.5215891195151936e-01  -9.5199029696715720e-01  -9.5184867630699133e-01  -9.5173189246818002e-01  -9.5163825539087610e-01  -9.5156647056161525e-01  -9.5151556118477065e-01  -9.5148480277879621e-01  -9.5147369710430740e-01  9.9158557084454924e-01  9.9156484205466011e-01  9.9150124789516991e-01  9.9139170973323021e-01  9.9123083624586528e-01  9.9101051278256025e-01  9.9071927753153688e-01  9.9034141870471115e-01  9.8985569815766838e-01  9.8923356828131181e-01  9.8843669597933670e-01  9.8741353494623563e-01  9.8609458900302815e-01  9.8438587754072548e-01  9.8215994157812359e-01  9.7924351030483159e-01  9.7540068605492369e-01  9.7031022319175497e-01  9.6353523921434081e-01  9.5448365573892646e-01  9.4235813114744160e-01  9.2609578912940993e-01  9.0430163635209049e-01  8.7518662480739173e-01  8.3653347131359312e-01  7.8573124751190182e-01  7.1994013456798311e-01  6.3645834535179513e-01  5.3333842904341766e-01  4.1020740557844815e-01  2.6907739613827963e-01  1.1476376596900811e-01  -4.5477549293688878e-02  -2.0318807676702599e-01  -3.5043046253291837e-01  -4.8129749258576493e-01  -5.9264644805410760e-01  -6.8396172710184389e-01  -7.5665178410643730e-01  -8.1319619716227809e-01  -8.5643295180315082e-01  -8.8909246111618301e-01  -9.1355907679175052e-01  -9.3179199290140058e-01  -9.4533752600169352e-01  -9.5538336180960881e-01  -9.6282504021634818e-01  -9.6832949028565096e-01  -9.7238937252990354e-01  -9.7536678633252694e-01  -9.7752712840866018e-01  -9.7906470037481375e-01  -9.8012177818013591e-01  -9.8080267388209763e-01  -9.8118404505506718e-01  -9.8132243277474596e-01  -9.8125977209598914e-01  -9.8102742817328692e-01  -9.8064916373238153e-01  -9.8014333243751328e-01  -9.7952451018533171e-01  -9.7880471572081085e-01  -9.7799432771676176e-01  -9.7710277335093443e-01  -9.7613904029536991e-01  -9.7511204759988324e-01  -9.7403089955037914e-01  -9.7290503902538228e-01  -9.7174431229351654e-01  -9.7055895492827160e-01  -9.6935950801885740e-01  -9.6815667463736499e-01  -9.6696112811140000e-01  -9.6578328558142390e-01  -9.6463306213912337e-01  -9.6351962212961795e-01  -9.6245114460970360e-01  -9.6143461924821261e-01  -9.6047568703337005e-01  -9.5957853707134333e-01  -9.5874586672755679e-01  -9.5797890771264704e-01  -9.5727751586729537e-01  -9.5664031780293290e-01  -9.5606490362806129e-01  -9.5554805207210958e-01  -9.5508597263251704e-01  -9.5467454900274595e-01  -9.5430956894172214e-01  -9.5398692775523664e-01  -9.5370279542704794e-01  -9.5345374086010604e-01  -9.5323681034835495e-01  -9.5304956099560278e-01  -9.5289005307799879e-01  -9.5275680814653640e-01  -9.5264874196049609e-01  -9.5256508329827605e-01  -9.5250529162555697e-01  -9.5246898851892425e-01  -9.5245591780724070e-01  9.9132611150047756e-01  9.9130503223045607e-01  9.9124028587448332e-01  9.9112872493458859e-01  9.9096484869835000e-01  9.9074038997630842e-01  9.9044368352176160e-01  9.9005875146233213e-01  9.8956401120743354e-01  9.8893047175147586e-01  9.8811923060903395e-01  9.8707801050337496e-01  9.8573637597844577e-01  9.8399913790879812e-01  9.8173728095959079e-01  9.7877553041519971e-01  9.7487541380759757e-01  9.6971239323987757e-01  9.6284541395648693e-01  9.5367718803749335e-01  9.4140402252253175e-01  9.2495558943140233e-01  9.0292869660989372e-01  8.7352628025237899e-01  8.3452509917742379e-01  7.8331353281302996e-01  7.1706101973100167e-01  6.3309049035677611e-01  5.2949885510299899e-01  4.0597611303420594e-01  2.6460564617219562e-01  1.1026225967227295e-01  -4.9773382390294406e-02  -2.0706577322365655e-01  -3.5374202953370015e-01  -4.8397842551302450e-01  -5.9470902412759274e-01  -6.8547171947474062e-01  -7.5770147499534912e-01  -8.1388268310338663e-01  -8.5684479950614545e-01  -8.8930372006058356e-01  -9.1362818724735273e-01  -9.3176328121886465e-01  -9.4524369768967298e-01  -9.5524809918846476e-01  -9.6266529612965357e-01  -9.6815734879309212e-01  -9.7221348468584667e-01  -9.7519344359573779e-01  -9.7736104858940687e-01  -9.7890959492911978e-01  -9.7998075733406254e-01  -9.8067853316049503e-01  -9.8107946551731062e-01  -9.8124011821163837e-01  -9.8120253951511405e-01  -9.8099826275959112e-01  -9.8065124575106566e-01  -9.8018004092874700e-01  -9.7959940653320621e-01  -9.7892150907340836e-01  -9.7815682365119427e-01  -9.7731480701268558e-01  -9.7640439541243718e-01  -9.7543436320572352e-01  -9.7441356687259406e-01  -9.7335109173098056e-01  -9.7225631403993718e-01  -9.7113888885863608e-01  -9.7000867336443686e-01  -9.6887559585993799e-01  -9.6774948195871291e-01  -9.6663985099234340e-01  -9.6555569710891920e-01  -9.6450527045931811e-01  -9.6349587398814440e-01  -9.6253369045992787e-01  -9.6162365238439385e-01  -9.6076936452296791e-01  -9.5997308486158306e-01  -9.5923576563152257e-01  -9.5855715153006504e-01  -9.5793592813705764e-01  -9.5736991001393801e-01  -9.5685625540630104e-01  -9.5639169304309124e-01  -9.5597274630829554e-01  -9.5559594101007828e-01  -9.5525798494122860e-01  -9.5495591019088832e-01  -9.5468717246190604e-01  -9.5444970518606898e-01  -9.5424192973842892e-01  -9.5406272629735112e-01  -9.5391137270507187e-01  -9.5378746095774702e-01  -9.5369080266271522e-01  -9.5362133588072939e-01  -9.5357904585027975e-