<?xml version="1.0"?>
<VTKFile type="UnstructuredGrid"  version="0.1"  >
<UnstructuredGrid>
<Piece  NumberOfPoints="10201" NumberOfCells="20000">
<Points>
<DataArray  type="Float64"  NumberOfComponents="3"  format="ascii">0 0 0  0.25 0 0  0.5 0 0  0.75 0 0  1 0 0  1.25 0 0  1.5 0 0  1.75 0 0  2 0 0  2.25 0 0  2.5 0 0  2.75 0 0  3 0 0  3.25 0 0  3.5 0 0  3.75 0 0  4 0 0  4.25 0 0  4.5 0 0  4.75 0 0  5 0 0  5.25 0 0  5.5 0 0  5.75 0 0  6 0 0  6.25 0 0  6.5 0 0  6.75 0 0  7 0 0  7.25 0 0  7.5 0 0  7.75 0 0  8 0 0  8.25 0 0  8.5 0 0  8.75 0 0  9 0 0  9.25 0 0  9.5 0 0  9.75 0 0  10 0 0  10.25 0 0  10.5 0 0  10.75 0 0  11 0 0  11.25 0 0  11.5 0 0  11.75 0 0  12 0 0  12.25 0 0  12.5 0 0  12.75 0 0  13 0 0  13.25 0 0  13.5 0 0  13.75 0 0  14 0 0  14.25 0 0  14.5 0 0  14.75 0 0  15 0 0  15.25 0 0  15.5 0 0  15.75 0 0  16 0 0  16.25 0 0  16.5 0 0  16.75 0 0  17 0 0  17.25 0 0  17.5 0 0  17.75 0 0  18 0 0  18.25 0 0  18.5 0 0  18.75 0 0  19 0 0  19.25 0 0  19.5 0 0  19.75 0 0  20 0 0  20.25 0 0  20.5 0 0  20.75 0 0  21 0 0  21.25 0 0  21.5 0 0  21.75 0 0  22 0 0  22.25 0 0  22.5 0 0  22.75 0 0  23 0 0  23.25 0 0  23.5 0 0  23.75 0 0  24 0 0  24.25 0 0  24.5 0 0  24.75 0 0  25 0 0  0 0.25 0  0.25 0.25 0  0.5 0.25 0  0.75 0.25 0  1 0.25 0  1.25 0.25 0  1.5 0.25 0  1.75 0.25 0  2 0.25 0  2.25 0.25 0  2.5 0.25 0  2.75 0.25 0  3 0.25 0  3.25 0.25 0  3.5 0.25 0  3.75 0.25 0  4 0.25 0  4.25 0.25 0  4.5 0.25 0  4.75 0.25 0  5 0.25 0  5.25 0.25 0  5.5 0.25 0  5.75 0.25 0  6 0.25 0  6.25 0.25 0  6.5 0.25 0  6.75 0.25 0  7 0.25 0  7.25 0.25 0  7.5 0.25 0  7.75 0.25 0  8 0.25 0  8.25 0.25 0  8.5 0.25 0  8.75 0.25 0  9 0.25 0  9.25 0.25 0  9.5 0.25 0  9.75 0.25 0  10 0.25 0  10.25 0.25 0  10.5 0.25 0  10.75 0.25 0  11 0.25 0  11.25 0.25 0  11.5 0.25 0  11.75 0.25 0  12 0.25 0  12.25 0.25 0  12.5 0.25 0  12.75 0.25 0  13 0.25 0  13.25 0.25 0  13.5 0.25 0  13.75 0.25 0  14 0.25 0  14.25 0.25 0  14.5 0.25 0  14.75 0.25 0  15 0.25 0  15.25 0.25 0  15.5 0.25 0  15.75 0.25 0  16 0.25 0  16.25 0.25 0  16.5 0.25 0  16.75 0.25 0  17 0.25 0  17.25 0.25 0  17.5 0.25 0  17.75 0.25 0  18 0.25 0  18.25 0.25 0  18.5 0.25 0  18.75 0.25 0  19 0.25 0  19.25 0.25 0  19.5 0.25 0  19.75 0.25 0  20 0.25 0  20.25 0.25 0  20.5 0.25 0  20.75 0.25 0  21 0.25 0  21.25 0.25 0  21.5 0.25 0  21.75 0.25 0  22 0.25 0  22.25 0.25 0  22.5 0.25 0  22.75 0.25 0  23 0.25 0  23.25 0.25 0  23.5 0.25 0  23.75 0.25 0  24 0.25 0  24.25 0.25 0  24.5 0.25 0  24.75 0.25 0  25 0.25 0  0 0.5 0  0.25 0.5 0  0.5 0.5 0  0.75 0.5 0  1 0.5 0  1.25 0.5 0  1.5 0.5 0  1.75 0.5 0  2 0.5 0  2.25 0.5 0  2.5 0.5 0  2.75 0.5 0  3 0.5 0  3.25 0.5 0  3.5 0.5 0  3.75 0.5 0  4 0.5 0  4.25 0.5 0  4.5 0.5 0  4.75 0.5 0  5 0.5 0  5.25 0.5 0  5.5 0.5 0  5.75 0.5 0  6 0.5 0  6.25 0.5 0  6.5 0.5 0  6.75 0.5 0  7 0.5 0  7.25 0.5 0  7.5 0.5 0  7.75 0.5 0  8 0.5 0  8.25 0.5 0  8.5 0.5 0  8.75 0.5 0  9 0.5 0  9.25 0.5 0  9.5 0.5 0  9.75 0.5 0  10 0.5 0  10.25 0.5 0  10.5 0.5 0  10.75 0.5 0  11 0.5 0  11.25 0.5 0  11.5 0.5 0  11.75 0.5 0  12 0.5 0  12.25 0.5 0  12.5 0.5 0  12.75 0.5 0  13 0.5 0  13.25 0.5 0  13.5 0.5 0  13.75 0.5 0  14 0.5 0  14.25 0.5 0  14.5 0.5 0  14.75 0.5 0  15 0.5 0  15.25 0.5 0  15.5 0.5 0  15.75 0.5 0  16 0.5 0  16.25 0.5 0  16.5 0.5 0  16.75 0.5 0  17 0.5 0  17.25 0.5 0  17.5 0.5 0  17.75 0.5 0  18 0.5 0  18.25 0.5 0  18.5 0.5 0  18.75 0.5 0  19 0.5 0  19.25 0.5 0  19.5 0.5 0  19.75 0.5 0  20 0.5 0  20.25 0.5 0  20.5 0.5 0  20.75 0.5 0  21 0.5 0  21.25 0.5 0  21.5 0.5 0  21.75 0.5 0  22 0.5 0  22.25 0.5 0  22.5 0.5 0  22.75 0.5 0  23 0.5 0  23.25 0.5 0  23.5 0.5 0  23.75 0.5 0  24 0.5 0  24.25 0.5 0  24.5 0.5 0  24.75 0.5 0  25 0.5 0  0 0.75 0  0.25 0.75 0  0.5 0.75 0  0.75 0.75 0  1 0.75 0  1.25 0.75 0  1.5 0.75 0  1.75 0.75 0  2 0.75 0  2.25 0.75 0  2.5 0.75 0  2.75 0.75 0  3 0.75 0  3.25 0.75 0  3.5 0.75 0  3.75 0.75 0  4 0.75 0  4.25 0.75 0  4.5 0.75 0  4.75 0.75 0  5 0.75 0  5.25 0.75 0  5.5 0.75 0  5.75 0.75 0  6 0.75 0  6.25 0.75 0  6.5 0.75 0  6.75 0.75 0  7 0.75 0  7.25 0.75 0  7.5 0.75 0  7.75 0.75 0  8 0.75 0  8.25 0.75 0  8.5 0.75 0  8.75 0.75 0  9 0.75 0  9.25 0.75 0  9.5 0.75 0  9.75 0.75 0  10 0.75 0  10.25 0.75 0  10.5 0.75 0  10.75 0.75 0  11 0.75 0  11.25 0.75 0  11.5 0.75 0  11.75 0.75 0  12 0.75 0  12.25 0.75 0  12.5 0.75 0  12.75 0.75 0  13 0.75 0  13.25 0.75 0  13.5 0.75 0  13.75 0.75 0  14 0.75 0  14.25 0.75 0  14.5 0.75 0  14.75 0.75 0  15 0.75 0  15.25 0.75 0  15.5 0.75 0  15.75 0.75 0  16 0.75 0  16.25 0.75 0  16.5 0.75 0  16.75 0.75 0  17 0.75 0  17.25 0.75 0  17.5 0.75 0  17.75 0.75 0  18 0.75 0  18.25 0.75 0  18.5 0.75 0  18.75 0.75 0  19 0.75 0  19.25 0.75 0  19.5 0.75 0  19.75 0.75 0  20 0.75 0  20.25 0.75 0  20.5 0.75 0  20.75 0.75 0  21 0.75 0  21.25 0.75 0  21.5 0.75 0  21.75 0.75 0  22 0.75 0  22.25 0.75 0  22.5 0.75 0  22.75 0.75 0  23 0.75 0  23.25 0.75 0  23.5 0.75 0  23.75 0.75 0  24 0.75 0  24.25 0.75 0  24.5 0.75 0  24.75 0.75 0  25 0.75 0  0 1 0  0.25 1 0  0.5 1 0  0.75 1 0  1 1 0  1.25 1 0  1.5 1 0  1.75 1 0  2 1 0  2.25 1 0  2.5 1 0  2.75 1 0  3 1 0  3.25 1 0  3.5 1 0  3.75 1 0  4 1 0  4.25 1 0  4.5 1 0  4.75 1 0  5 1 0  5.25 1 0  5.5 1 0  5.75 1 0  6 1 0  6.25 1 0  6.5 1 0  6.75 1 0  7 1 0  7.25 1 0  7.5 1 0  7.75 1 0  8 1 0  8.25 1 0  8.5 1 0  8.75 1 0  9 1 0  9.25 1 0  9.5 1 0  9.75 1 0  10 1 0  10.25 1 0  10.5 1 0  10.75 1 0  11 1 0  11.25 1 0  11.5 1 0  11.75 1 0  12 1 0  12.25 1 0  12.5 1 0  12.75 1 0  13 1 0  13.25 1 0  13.5 1 0  13.75 1 0  14 1 0  14.25 1 0  14.5 1 0  14.75 1 0  15 1 0  15.25 1 0  15.5 1 0  15.75 1 0  16 1 0  16.25 1 0  16.5 1 0  16.75 1 0  17 1 0  17.25 1 0  17.5 1 0  17.75 1 0  18 1 0  18.25 1 0  18.5 1 0  18.75 1 0  19 1 0  19.25 1 0  19.5 1 0  19.75 1 0  20 1 0  20.25 1 0  20.5 1 0  20.75 1 0  21 1 0  21.25 1 0  21.5 1 0  21.75 1 0  22 1 0  22.25 1 0  22.5 1 0  22.75 1 0  23 1 0  23.25 1 0  23.5 1 0  23.75 1 0  24 1 0  24.25 1 0  24.5 1 0  24.75 1 0  25 1 0  0 1.25 0  0.25 1.25 0  0.5 1.25 0  0.75 1.25 0  1 1.25 0  1.25 1.25 0  1.5 1.25 0  1.75 1.25 0  2 1.25 0  2.25 1.25 0  2.5 1.25 0  2.75 1.25 0  3 1.25 0  3.25 1.25 0  3.5 1.25 0  3.75 1.25 0  4 1.25 0  4.25 1.25 0  4.5 1.25 0  4.75 1.25 0  5 1.25 0  5.25 1.25 0  5.5 1.25 0  5.75 1.25 0  6 1.25 0  6.25 1.25 0  6.5 1.25 0  6.75 1.25 0  7 1.25 0  7.25 1.25 0  7.5 1.25 0  7.75 1.25 0  8 1.25 0  8.25 1.25 0  8.5 1.25 0  8.75 1.25 0  9 1.25 0  9.25 1.25 0  9.5 1.25 0  9.75 1.25 0  10 1.25 0  10.25 1.25 0  10.5 1.25 0  10.75 1.25 0  11 1.25 0  11.25 1.25 0  11.5 1.25 0  11.75 1.25 0  12 1.25 0  12.25 1.25 0  12.5 1.25 0  12.75 1.25 0  13 1.25 0  13.25 1.25 0  13.5 1.25 0  13.75 1.25 0  14 1.25 0  14.25 1.25 0  14.5 1.25 0  14.75 1.25 0  15 1.25 0  15.25 1.25 0  15.5 1.25 0  15.75 1.25 0  16 1.25 0  16.25 1.25 0  16.5 1.25 0  16.75 1.25 0  17 1.25 0  17.25 1.25 0  17.5 1.25 0  17.75 1.25 0  18 1.25 0  18.25 1.25 0  18.5 1.25 0  18.75 1.25 0  19 1.25 0  19.25 1.25 0  19.5 1.25 0  19.75 1.25 0  20 1.25 0  20.25 1.25 0  20.5 1.25 0  20.75 1.25 0  21 1.25 0  21.25 1.25 0  21.5 1.25 0  21.75 1.25 0  22 1.25 0  22.25 1.25 0  22.5 1.25 0  22.75 1.25 0  23 1.25 0  23.25 1.25 0  23.5 1.25 0  23.75 1.25 0  24 1.25 0  24.25 1.25 0  24.5 1.25 0  24.75 1.25 0  25 1.25 0  0 1.5 0  0.25 1.5 0  0.5 1.5 0  0.75 1.5 0  1 1.5 0  1.25 1.5 0  1.5 1.5 0  1.75 1.5 0  2 1.5 0  2.25 1.5 0  2.5 1.5 0  2.75 1.5 0  3 1.5 0  3.25 1.5 0  3.5 1.5 0  3.75 1.5 0  4 1.5 0  4.25 1.5 0  4.5 1.5 0  4.75 1.5 0  5 1.5 0  5.25 1.5 0  5.5 1.5 0  5.75 1.5 0  6 1.5 0  6.25 1.5 0  6.5 1.5 0  6.75 1.5 0  7 1.5 0  7.25 1.5 0  7.5 1.5 0  7.75 1.5 0  8 1.5 0  8.25 1.5 0  8.5 1.5 0  8.75 1.5 0  9 1.5 0  9.25 1.5 0  9.5 1.5 0  9.75 1.5 0  10 1.5 0  10.25 1.5 0  10.5 1.5 0  10.75 1.5 0  11 1.5 0  11.25 1.5 0  11.5 1.5 0  11.75 1.5 0  12 1.5 0  12.25 1.5 0  12.5 1.5 0  12.75 1.5 0  13 1.5 0  13.25 1.5 0  13.5 1.5 0  13.75 1.5 0  14 1.5 0  14.25 1.5 0  14.5 1.5 0  14.75 1.5 0  15 1.5 0  15.25 1.5 0  15.5 1.5 0  15.75 1.5 0  16 1.5 0  16.25 1.5 0  16.5 1.5 0  16.75 1.5 0  17 1.5 0  17.25 1.5 0  17.5 1.5 0  17.75 1.5 0  18 1.5 0  18.25 1.5 0  18.5 1.5 0  18.75 1.5 0  19 1.5 0  19.25 1.5 0  19.5 1.5 0  19.75 1.5 0  20 1.5 0  20.25 1.5 0  20.5 1.5 0  20.75 1.5 0  21 1.5 0  21.25 1.5 0  21.5 1.5 0  21.75 1.5 0  22 1.5 0  22.25 1.5 0  22.5 1.5 0  22.75 1.5 0  23 1.5 0  23.25 1.5 0  23.5 1.5 0  23.75 1.5 0  24 1.5 0  24.25 1.5 0  24.5 1.5 0  24.75 1.5 0  25 1.5 0  0 1.75 0  0.25 1.75 0  0.5 1.75 0  0.75 1.75 0  1 1.75 0  1.25 1.75 0  1.5 1.75 0  1.75 1.75 0  2 1.75 0  2.25 1.75 0  2.5 1.75 0  2.75 1.75 0  3 1.75 0  3.25 1.75 0  3.5 1.75 0  3.75 1.75 0  4 1.75 0  4.25 1.75 0  4.5 1.75 0  4.75 1.75 0  5 1.75 0  5.25 1.75 0  5.5 1.75 0  5.75 1.75 0  6 1.75 0  6.25 1.75 0  6.5 1.75 0  6.75 1.75 0  7 1.75 0  7.25 1.75 0  7.5 1.75 0  7.75 1.75 0  8 1.75 0  8.25 1.75 0  8.5 1.75 0  8.75 1.75 0  9 1.75 0  9.25 1.75 0  9.5 1.75 0  9.75 1.75 0  10 1.75 0  10.25 1.75 0  10.5 1.75 0  10.75 1.75 0  11 1.75 0  11.25 1.75 0  11.5 1.75 0  11.75 1.75 0  12 1.75 0  12.25 1.75 0  12.5 1.75 0  12.75 1.75 0  13 1.75 0  13.25 1.75 0  13.5 1.75 0  13.75 1.75 0  14 1.75 0  14.25 1.75 0  14.5 1.75 0  14.75 1.75 0  15 1.75 0  15.25 1.75 0  15.5 1.75 0  15.75 1.75 0  16 1.75 0  16.25 1.75 0  16.5 1.75 0  16.75 1.75 0  17 1.75 0  17.25 1.75 0  17.5 1.75 0  17.75 1.75 0  18 1.75 0  18.25 1.75 0  18.5 1.75 0  18.75 1.75 0  19 1.75 0  19.25 1.75 0  19.5 1.75 0  19.75 1.75 0  20 1.75 0  20.25 1.75 0  20.5 1.75 0  20.75 1.75 0  21 1.75 0  21.25 1.75 0  21.5 1.75 0  21.75 1.75 0  22 1.75 0  22.25 1.75 0  22.5 1.75 0  22.75 1.75 0  23 1.75 0  23.25 1.75 0  23.5 1.75 0  23.75 1.75 0  24 1.75 0  24.25 1.75 0  24.5 1.75 0  24.75 1.75 0  25 1.75 0  0 2 0  0.25 2 0  0.5 2 0  0.75 2 0  1 2 0  1.25 2 0  1.5 2 0  1.75 2 0  2 2 0  2.25 2 0  2.5 2 0  2.75 2 0  3 2 0  3.25 2 0  3.5 2 0  3.75 2 0  4 2 0  4.25 2 0  4.5 2 0  4.75 2 0  5 2 0  5.25 2 0  5.5 2 0  5.75 2 0  6 2 0  6.25 2 0  6.5 2 0  6.75 2 0  7 2 0  7.25 2 0  7.5 2 0  7.75 2 0  8 2 0  8.25 2 0  8.5 2 0  8.75 2 0  9 2 0  9.25 2 0  9.5 2 0  9.75 2 0  10 2 0  10.25 2 0  10.5 2 0  10.75 2 0  11 2 0  11.25 2 0 
[...]
<PointData  Scalars="f_26"> 
<DataArray  type="Float64"  Name="f_26"  format="ascii">4.4080848481582652e-01  4.4035572323893485e-01  4.3962444239365100e-01  4.3851796706257207e-01  4.3699859158064924e-01  4.3503992332626612e-01  4.3261408915694138e-01  4.2968710118778380e-01  4.2621641085558309e-01  4.2214926948427978e-01  4.1742161347244727e-01  4.1195747975526037e-01  4.0566903400156734e-01  3.9845730714708583e-01  3.9021372560847534e-01  3.8082249941174451e-01  3.7016390450512188e-01  3.5811846118519464e-01  3.4457196834948112e-01  3.2942130064493147e-01  3.1258081000373683e-01  2.9398909360984349e-01  2.7361579950515347e-01  2.5146804651862970e-01  2.2759595098075455e-01  2.0209669864064367e-01  1.7511659940840704e-01  1.4685063612639790e-01  1.1753917874155217e-01  8.7461778333438531e-02  5.6928257563823935e-02  2.6267632080369321e-02  -4.1843238026032879e-03  -3.4097868327334781e-02  -6.3161388167779373e-02  -9.1091837638181170e-02  -1.1764277741370037e-01  -1.4260957030223662e-01  -1.6583162124281098e-01  -1.8719185248295953e-01  -2.0661384199060284e-01  -2.2405720231797449e-01  -2.3951183661533451e-01  -2.5299169137898592e-01  -2.6452855296792382e-01  -2.7416632975527555e-01  -2.8195614392199192e-01  -2.8795244110887186e-01  -2.9221022164559690e-01  -2.9478340840778949e-01  -2.9572429469274325e-01  -2.9508395998944842e-01  -2.9291350029534913e-01  -2.8926589057483931e-01  -2.8419827810891146e-01  -2.7777449532763770e-01  -2.7006757829167682e-01  -2.6116208195389062e-01  -2.5115599590180754e-01  -2.4016208504232997e-01  -2.2830850927857316e-01  -2.1573861490254476e-01  -2.0260983760392492e-01  -1.8909171087891075e-01  -1.7536303105189671e-01  -1.6160828673493180e-01  -1.4801351129792203e-01  -1.3476175685995417e-01  -1.2202841348250505e-01  -1.0997660544841320e-01  -9.8752887732679540e-02  -8.8483442151229705e-02  -7.9270938004403088e-02  -7.1192180929419951e-02  -6.4296630641088051e-02  -5.8605826852046350e-02  -5.4113725099272529e-02  -5.0787911164464752e-02  -4.8571633800273739e-02  -4.7386569502498387e-02  -4.7136209087734027e-02  -4.7709733426328102e-02  -4.8986225324336476e-02  -5.0839047643601705e-02  -5.3140206342613315e-02  -5.5764513446065644e-02  -5.8593370900434233e-02  -6.1518012934882002e-02  -6.4442071911535545e-02  -6.7283369533199300e-02  -6.9974879458483089e-02  -7.2464855887336518e-02  -7.4716172188641378e-02  -7.6704960846004214e-02  -7.8418688078990578e-02  -7.9853831818037568e-02  -8.1013361727030886e-02  -8.1904256420270299e-02  -8.2535389034854648e-02  -8.2916506848917312e-02  -8.3060852845908695e-02  4.3927245602922560e-01  4.3900492191317431e-01  4.3832501540467944e-01  4.3724073197396313e-01  4.3573781371587050e-01  4.3379557816278708e-01  4.3138764396845369e-01  4.2848038809201333e-01  4.2503128387426342e-01  4.2098749190290036e-01  4.1628482744059697e-01  4.1084721264997909e-01  4.0458672486567043e-01  3.9740434544433512e-01  3.8919149745654724e-01  3.7983243730327132e-01  3.6920753656850042e-01  3.5719745574821005e-01  3.4368816919874084e-01  3.2857674812362769e-01  3.1177774317100998e-01  2.9322992932116815e-01  2.7290308566463911e-01  2.5080438900988811e-01  2.2698391683936034e-01  2.0153870158276294e-01  1.7461477731135863e-01  1.4640673271108101e-01  1.1715444275616618e-01  8.7136892425788329e-02  5.6663305654661850e-02  2.6062108892267972e-02  -4.3314633531829818e-03  -3.4188127656879494e-02  -6.3196627160906932e-02  -9.1074163734869901e-02  -1.1757444233889067e-01  -1.4249288266528060e-01  -1.6566888177596475e-01  -1.8698531507286931e-01  -2.0636570051974820e-01  -2.2376960100642407e-01  -2.3918690008943291e-01  -2.5263156996195185e-01  -2.6413547848350005e-01  -2.7374267726365104e-01  -2.8150449511983006e-01  -2.8747564552873772e-01  -2.9171145223065936e-01  -2.9426620848410778e-01  -2.9519261379276279e-01  -2.9454217638189661e-01  -2.9236642844257033e-01  -2.8871877207616115e-01  -2.8365675502168280e-01  -2.7724456512471379e-01  -2.6955553016151657e-01  -2.6067441471883895e-01  -2.5069931854470745e-01  -2.3974300168311186e-01  -2.2793349138385213e-01  -2.1541386445779526e-01  -2.0234114581809409e-01  -1.8888431760701452e-01  -1.7522149041131324e-01  -1.6153634429553795e-01  -1.4801399774100130e-01  -1.3483650218165569e-01  -1.2217818476940319e-01  -1.1020107010755811e-01  -9.9050602948507163e-02  -8.8851870372980452e-02  -7.9706487502687204e-02  -7.1690269911689503e-02  -6.4851773051204487e-02  -5.9211737737758778e-02  -5.4763443242461310e-02  -5.1473936471258828e-02  -4.9286076704633003e-02  -4.8121309342105935e-02  -4.7883058090272705e-02  -4.8460602645232893e-02  -4.9733288643499428e-02  -5.1574899883276466e-02  -5.3858011579923447e-02  -5.6458139924163139e-02  -5.9257509324752197e-02  -6.2148275504382872e-02  -6.5035070053746660e-02  -6.7836768945183284e-02  -7.0487431645297791e-02  -7.2936405883239977e-02  -7.5147642485809588e-02  -7.7098311628106417e-02  -7.8776853327400712e-02  -8.0180628530988882e-02  -8.1313360656497954e-02  -8.2182567264988973e-02  -8.2797158960814896e-02  -8.3165215682178231e-02  -8.3290994724623757e-02  4.3533024526860570e-01  4.3511676603430183e-01  4.3448522654185012e-01  4.3344344095748077e-01  4.3198380233536882e-01  4.3008922508250763e-01  4.2773472463090212e-01  4.2488698855455859e-01  4.2150330193115970e-01  4.1753042032893778e-01  4.1290368134884398e-01  4.0754654008177105e-01  4.0137067164816020e-01  3.9427675801680334e-01  3.8615605206287290e-01  3.7689278529214282e-01  3.6636745545106453e-01  3.5446099499243416e-01  3.4105977895492778e-01  3.2606137852406725e-01  3.0938090187447215e-01  2.9095768595330657e-01  2.7076201410806067e-01  2.4880144240460145e-01  2.2512623573704152e-01  1.9983336268642665e-01  1.7306849792222900e-01  1.4502555326782599e-01  1.1594341528568260e-01  8.6099804953034043e-02  5.5802470678540640e-02  2.5378237729392607e-02  -4.8392884742850164e-03  -3.4522383798731980e-02  -6.3361195076863192e-02  -9.1074108090524519e-02  -1.1741575547434963e-01  -1.4218222143549256e-01  -1.6521332479983328e-01  -1.8639216243399870e-01  -2.0564233088474840e-01  -2.2292339355696869e-01  -2.3822522165089835e-01  -2.5156182193781867e-01  -2.6296519398670981e-01  -2.7247965619413600e-01  -2.8015696369519272e-01  -2.8605242665242253e-01  -2.9022213376594014e-01  -2.9272129769424626e-01  -2.9360366765257007e-01  -2.9292189896917131e-01  -2.9072872805605859e-01  -2.8707877205209331e-01  -2.8203075345950612e-01  -2.7564993997267134e-01  -2.6801058748307344e-01  -2.5919817959905705e-01  -2.4931127010886980e-01  -2.3846275612660417e-01  -2.2678043969147441e-01  -2.1440677444857978e-01  -2.0149774101298168e-01  -1.8822084784176504e-01  -1.7475231076129419e-01  -1.6127351946315788e-01  -1.4796694843058492e-01  -1.3501170817148370e-01  -1.2257895658428357e-01  -1.1082739773856570e-01  -9.9899086376895208e-02  -8.9915733143529547e-02  -8.0975671582902628e-02  -7.3151607750756881e-02  -6.6489231138549459e-02  -6.1006724934594560e-02  -5.6695176506567579e-02  -5.3519856073867493e-02  -5.1422302445759530e-02  -5.0323128492815984e-02  -5.0125434826013969e-02  -5.0718697689784674e-02  -5.1982976900556664e-02  -5.3793273202079515e-02  -5.6023853667629776e-02  -5.8552360896864317e-02  -6.1263528502667849e-02  -6.4052342729111617e-02  -6.6826517882171865e-02  -6.9508190355145688e-02  -7.2034780160838488e-02  -7.4359017094216495e-02  -7.6448177612740226e-02  -7.8282624843881751e-02  -7.9853784573416464e-02  -8.1161721557471742e-02  -8.2212499604630659e-02  -8.3015509917765795e-02  -8.3580922276734596e-02  -8.3917326685993915e-02  -8.4029500076909083e-02  4.2897701457136439e-01  4.2878933498744487e-01  4.2820179797283392e-01  4.2721491034592335e-01  4.2582050153426904e-01  4.2400201675565180e-01  4.2173463707979714e-01  4.1898472828247996e-01  4.1570891812990596e-01  4.1185312870202240e-01  4.0735181279002519e-01  4.0212758437603258e-01  3.9609139464605125e-01  3.8914337555693074e-01  3.8117444567718961e-01  3.7206874465044287e-01  3.6170693148132926e-01  3.4997034622553308e-01  3.3674599229993368e-01  3.2193224477214988e-01  3.0544512619448128e-01  2.8722491499149289e-01  2.6724276457556190e-01  2.4550692168076246e-01  2.2206805322634712e-01  1.9702314117478720e-01  1.7051740609560320e-01  1.4274379232941836e-01  1.1393970217517514e-01  8.4380899845066692e-02  5.4372795460644767e-02  2.4239624281398409e-02  -5.6876955099343825e-03  -3.5084063387204621e-02  -6.3642038366188702e-02  -9.1082089452450624e-02  -1.1716052843241229e-01  -1.4167468741543407e-01  -1.6446522133004118e-01  -1.8541571039816757e-01  -2.0444996960359577e-01  -2.2152762001911566e-01  -2.3663853805898116e-01  -2.4979678528654914e-01  -2.6103455342261656e-01  -2.7039655864044815e-01  -2.7793520546762729e-01  -2.8370672810654701e-01  -2.8776841486756072e-01  -2.9017693425682278e-01  -2.9098771037430038e-01  -2.9025523996740443e-01  -2.8803420210333136e-01  -2.8438118206241592e-01  -2.7935681197633955e-01  -2.7302812059697951e-01  -2.6547088254593687e-01  -2.5677176314251765e-01  -2.4703006856289092e-01  -2.3635893302733887e-01  -2.2488580529074673e-01  -2.1275213585331904e-01  -2.0011221313915126e-01  -1.8713114943470033e-01  -1.7398207247150951e-01  -1.6084263201643248e-01  -1.4789097803579876e-01  -1.3530140348194838e-01  -1.2323986706656948e-01  -1.1185961774247610e-01  -1.0129713321027843e-01  -9.1668561705094048e-02  -8.3066823133937068e-02  -7.5559486526571129e-02  -6.9187499764171018e-02  -6.3964807831908013e-02  -5.9878859318595684e-02  -5.6891968192906171e-02  -5.4943468681367111e-02  -5.3952574562947810e-02  -5.3821829695748086e-02  -5.4441013991947854e-02  -5.5691349053771877e-02  -5.7449831744741157e-02  -5.9593514061524966e-02  -6.2003545818171961e-02  -6.4568804470314975e-02  -6.7188954698545814e-02  -6.9776808903582010e-02  -7.2259897231052098e-02  -7.4581199898105521e-02  -7.6699042527716352e-02  -7.8586203644256017e-02  -8.0228329111804150e-02  -8.1621787905921270e-02  -8.2771134211929484e-02  -8.3686359589192780e-02  -8.4380123086438621e-02  -8.4865135427436372e-02  -8.5151854719014333e-02  -8.5246681687637757e-02  4.2032364655399074e-01  4.2015639119279041e-01  4.1961444244244123e-01  4.1869374042791507e-01  4.1738400900025546e-01  4.1566761434202659e-01  4.1351880977767080e-01  4.1090288941156866e-01  4.0777524284080663e-01  4.0408046058088060e-01  3.9975166699489617e-01  3.9471024539081834e-01  3.8886609817517975e-01  3.8211856053120641e-01  3.7435805991691173e-01  3.6546858539448240e-01  3.5533099960553671e-01  3.4382719067947165e-01  3.3084501934150407e-01  3.1628396533882636e-01  3.0006131471420439e-01  2.8211865473045072e-01  2.6242835892975275e-01  2.4099965824144251e-01  2.1788381827082573e-01  1.9317789615913797e-01  1.6702655365460803e-01  1.3962147523609458e-01  1.1119809197994940e-01  8.2029539568380744e-02  5.2418060299821392e-02  2.2684354619901457e-02  -6.8443528027424209e-03  -3.5846593745393243e-02  -6.4018293206579785e-02  -9.1082853492212290e-02  -1.1679897693416537e-01  -1.4096579835238790e-01  -1.6342520682248576e-01  -1.8406152306486834e-01  -2.0279892518567832e-01  -2.1959716071243279e-01  -2.3444614414618567e-01  -2.4736002792668527e-01  -2.5837127002251703e-01  -2.6752512450052468e-01  -2.7487487117076537e-01  -2.8047799084161462e-01  -2.8439339282426096e-01  -2.8667971566055173e-01  -2.8739465199895109e-01  -2.8659519356343821e-01  -2.8433865076981102e-01  -2.8068427201340895e-01  -2.7569526840941749e-01  -2.6944103960915233e-01  -2.6199939449701259e-01  -2.5345856680007262e-01  -2.4391883998585490e-01  -2.3349361853241807e-01  -2.2230981387612689e-01  -2.1050745277917329e-01  -1.9823846242864518e-01  -1.8566463817229722e-01  -1.7295485323226253e-01  -1.6028162098357365e-01  -1.4781716503926703e-01  -1.3572918635347708e-01  -1.2417653676094680e-01  -1.1330501332439351e-01  -1.0324347792201989e-01  -9.4100483774339466e-02  -8.5961558439637792e-02  -7.8887255104962264e-02  -7.2912044456859476e-02  -6.8044080901101228e-02  -6.4265841130780960e-02  -6.1535600596371261e-02  -5.9789684056922372e-02  -5.8945399488789803e-02  -5.8904539760791699e-02  -5.9557313773157816e-02  -6.0786549057726860e-02  -6.2471992668799395e-02  -6.4494528457580372e-02  -6.6740128384135788e-02  -6.9103364780712093e-02  -7.1490330032722538e-02  -7.3820839588920495e-02  -7.6029832152377949e-02  -7.8067925094689253e-02  -7.9901130738934262e-02  -8.1509787025638700e-02  -8.2886801019192033e-02  -8.4035342706390695e-02  -8.4966156895904643e-02  -8.5694680599594231e-02  -8.6238160962100185e-02  -8.6612966051197574e-02  -8.6832275262637149e-02  -8.6904345492304427e-02  4.0955029995734749e-01  4.0940349532723386e-01  4.0891180867726451e-01  4.0806856966363153e-01  4.0686136664968353e-01  4.0527080559646078e-01  4.0326947057827406e-01  4.0082092436981015e-01  3.9787874246368093e-01  3.9438567416258313e-01  3.9027306468846473e-01  3.8546067833928127e-01  3.7985705212114212e-01  3.7336049036752966e-01  3.6586078717354820e-01  3.5724173633565226e-01  3.4738445793158063e-01  3.3617153568672692e-01  3.2349191792672627e-01  3.0924648477764077e-01  2.9335412323279852e-01  2.7575807924237139e-01  2.5643227473104896e-01  2.3538719465964839e-01  2.1267487758955000e-01  1.8839250024101459e-01  1.6268405224067153e-01  1.3573966951409791e-01  1.0779234341695514e-01  7.9111943612598212e-02  4.9996764345995696e-02  2.0763088075699571e-02  -8.2664907353956207e-03  -3.6775072812150783e-02  -6.4462834230353219e-02  -9.1056900608403227e-02  -1.1631902883564124e-01  -1.4005067885821773e-01  -1.6209535494727501e-01  -1.8233837252290908e-01  -2.0070442589775528e-01  -2.1715347399827942e-01  -2.3167552226184690e-01  -2.4428487002476346e-01  -2.5501433202568868e-01  -2.6390985035910802e-01  -2.7102580734448761e-01  -2.7642124395102269e-01  -2.8015709138569544e-01  -2.8229443974965296e-01  -2.8289379877781368e-01  -2.8201525122065679e-01  -2.7971935812799820e-01  -2.7606864563329503e-01  -2.7112948343958015e-01  -2.6497415503631222e-01  -2.5768291809163796e-01  -2.4934586020287530e-01  -2.4006437025669583e-01  -2.2995206914364674e-01  -2.1913507541105182e-01  -2.0775152107077960e-01  -1.9595027889230229e-01  -1.8388891285720282e-01  -1.7173091484753733e-01  -1.5964233921757040e-01  -1.4778798856894862e-01  -1.3632733512594949e-01  -1.2541037992910917e-01  -1.1517365547252534e-01  -1.0573656693374783e-01  -9.7198244852418555e-02  -8.9635051142002625e-02  -8.3098844222283003e-02  -7.7616071140171813e-02  -7.3187717333406371e-02  -6.9790109695100577e-02  -6.7376536355700525e-02  -6.5879616982854869e-02  -6.5214330050960292e-02  -6.5281578304738921e-02  -6.5972150917620251e-02  -6.7170921649547022e-02  -6.8761108195962428e-02  -7.0628410689696969e-02  -7.2664848630236589e-02  -7.4772126514386777e-02  -7.6864379475774791e-02  -7.8870180727107345e-02  -8.0733731057876554e-02  -8.2415194847828513e-02  -8.3890194279804708e-02  -8.5148520684923359e-02  -8.6192166216404464e-02  -8.7032817493391659e-02  -8.7688983020998090e-02  -8.8182946222617076e-02  -8.8537744945757099e-02  -8.8774377012926231e-02  -8.8909422328910831e-02  -8.8953256937325573e-02  3.9689346909413664e-01  3.9676834291417268e-01  3.9633247832668689e-01  3.9557749665541980e-01  3.9448900751025245e-01  3.9304554573300088e-01  3.9121753034404294e-01  3.8896625667903134e-01  3.8624296677656167e-01  3.8298808808888973e-01  3.7913075717027167e-01  3.7458875216810561e-01  3.6926895122905057e-01  3.6306841823011393e-01  3.5587619569472145e-01  3.4757585899845028e-01  3.3804885639917776e-01  3.2717862529838504e-01  3.1485543475707523e-01  3.0098185544746098e-01  2.8547869904904227e-01  2.6829119929225043e-01  2.4939512915500536e-01  2.2880247027033734e-01  2.0656618365478657e-01  1.8278359218083515e-01  1.5759789366531651e-01  1.3119739568899305e-01  1.0381220812635511e-01  7.5708342400622672e-02  4.7179426775201067e-02  1.8536518208406981e-02  -9.9032721888434733e-03  -3.7828465849587496e-02  -6.4944295495840340e-02  -9.0982331801169700e-02  -1.1570799752903305e-01  -1.3892556530568809e-01  -1.6048051870188851e-01  -1.8025942113497184e-01  -1.9818764796399382e-01  -2.1422547456044780e-01  -2.2836307392149693e-01  -2.4061497119424552e-01  -2.5101444633951964e-01  -2.5960828916191575e-01  -2.6645221020714277e-01  -2.7160710963621559e-01  -2.7513631260835758e-01  -2.7710379842971500e-01  -2.7757338333645992e-01  -2.7660876308405830e-01  -2.7427428045547081e-01  -2.7063625309344708e-01  -2.6576467754928806e-01  -2.5973511526307325e-01  -2.5263056482522206e-01  -2.4454313208230141e-01  -2.3557532537936124e-01  -2.2584082740563241e-01  -2.1546462741474617e-01  -2.0458243720850597e-01  -1.9333935966606905e-01  -1.8188782739229223e-01  -1.7038487809429276e-01  -1.5898887890190366e-01  -1.4785585028632353e-01  -1.3713556824975215e-01  -1.2696763882641815e-01  -1.1747774081928646e-01  -1.0877422177491143e-01  -1.0094521047164985e-01  -9.4056379541248653e-02  -8.8149457430581710e-02  -8.3241552629065185e-02  -7.9325317129934486e-02  -7.6369941779431183e-02  -7.4322944029084112e-02  -7.3112678676191672e-02  -7.2651474377109698e-02  -7.2839273215811226e-02  -7.3567628055556056e-02  -7.4723893969406902e-02  -7.6195437293027801e-02  -7.7873680426336161e-02  -7.9657803840720243e-02  -8.1457939680932540e-02  -8.3197713972958637e-02  -8.4816026005876483e-02  -8.6267992406204891e-02  -8.7525027596299848e-02  -8.8574079127002117e-02  -8.9416082987452405e-02  -9.0063747589240267e-02  -9.0538813018615716e-02  -9.0868961995567293e-02  -9.1084578936121333e-02  -9.1215562476714585e-02  -9.1288394530306669e-02  -9.1323655634497111e-02  -9.1334151033807306e-02  3.8263962600331791e-01  3.8253742434607618e-01  3.8216262548334040e-01  3.8150550510417836e-01  3.8054976807051122e-01  3.7927167999933387e-01  3.7763913309970715e-01  3.7561072144269708e-01  3.7313490527864041e-01  3.7014936178093988e-01  3.6658063285421549e-01  3.6234418374475608e-01  3.5734497946289517e-01  3.5147867156740148e-01  3.4463346771605236e-01  3.3669273189215437e-01  3.2753833475908578e-01  3.1705474053654337e-01  3.0513377760581101e-01  2.9167999275712908e-01  2.7661643197481622e-01  2.5989062384446576e-01  2.4148046791564662e-01  2.2139965668227746e-01  1.9970219802557701e-01  1.7648557088709413e-01  1.5189205825804208e-01  1.2610787361362455e-01  9.9359837445479923e-02  7.1909564749543645e-02  4.4045372023243150e-02  1.6072369069368080e-02  -1.1698576165194466e-02  -3.8962164025807301e-02  -6.5429402925295782e-02  -9.0836957089440548e-02  -1.1495447093701130e-01  -1.3758948164783533e-01  -1.5858980014386820e-01  -1.7784349237629771e-01  -1.9527679418329866e-01  -2.1085042545817700e-01  -2.2455482957308742e-01  -2.3640486063513710e-01  -2.4643438997503600e-01  -2.5469122212169593e-01  -2.6123261555538374e-01  -2.6612160717736311e-01  -2.6942424984871061e-01  -2.7120779395584360e-01  -2.7153977843353966e-01  -2.7048794401166992e-01  -2.6812084082733806e-01  -2.6450897291444292e-01  -2.5972630251578660e-01  -2.5385192698239101e-01  -2.4697173982451476e-01  -2.3917989505433118e-01  -2.3057991017981938e-01  -2.2128526783866218e-01  -2.1141940855473362e-01  -2.0111504639437641e-01  -1.9051278365383867e-01  -1.7975904765218886e-01  -1.6900341913913408e-01  -1.5839546430860585e-01  -1.4808121756198298e-01  -1.3819948717145070e-01  -1.2887816903333749e-01  -1.2023075423102887e-01  -1.1235320492719642e-01  -1.0532135206594195e-01  -9.9188940073131227e-02  -9.3986410970692824e-02  -8.9720485556173735e-02  -8.6374564425226535e-02  -8.3909937804658052e-02  -8.2267760989973654e-02  -8.1371721881735623e-02  -8.1131298914085173e-02  -8.1445482052716886e-02  -8.2206807403667231e-02  -8.3305538605335072e-02  -8.4633817083377513e-02  -8.6089599895557256e-02  -8.7580209409779078e-02  -8.9025333996303330e-02  -9.0359343111928586e-02  -9.1532812708938205e-02  -9.2513196253304952e-02  -9.3284620704498875e-02  -9.3846833159033499e-02  -9.4213369864570379e-02  -9.4409062298375215e-02  -9.4467032396812825e-02  -9.4425358492065001e-02  -9.4323613140364596e-02  -9.4199482456718775e-02  -9.4085673061687636e-02  -9.4007296967365248e-