<?xml version="1.0"?>
<VTKFile type="UnstructuredGrid"  version="0.1"  >
<UnstructuredGrid>
<Piece  NumberOfPoints="10201" NumberOfCells="20000">
<Points>
<DataArray  type="Float64"  NumberOfComponents="3"  format="ascii">0 0 0  0.25 0 0  0.5 0 0  0.75 0 0  1 0 0  1.25 0 0  1.5 0 0  1.75 0 0  2 0 0  2.25 0 0  2.5 0 0  2.75 0 0  3 0 0  3.25 0 0  3.5 0 0  3.75 0 0  4 0 0  4.25 0 0  4.5 0 0  4.75 0 0  5 0 0  5.25 0 0  5.5 0 0  5.75 0 0  6 0 0  6.25 0 0  6.5 0 0  6.75 0 0  7 0 0  7.25 0 0  7.5 0 0  7.75 0 0  8 0 0  8.25 0 0  8.5 0 0  8.75 0 0  9 0 0  9.25 0 0  9.5 0 0  9.75 0 0  10 0 0  10.25 0 0  10.5 0 0  10.75 0 0  11 0 0  11.25 0 0  11.5 0 0  11.75 0 0  12 0 0  12.25 0 0  12.5 0 0  12.75 0 0  13 0 0  13.25 0 0  13.5 0 0  13.75 0 0  14 0 0  14.25 0 0  14.5 0 0  14.75 0 0  15 0 0  15.25 0 0  15.5 0 0  15.75 0 0  16 0 0  16.25 0 0  16.5 0 0  16.75 0 0  17 0 0  17.25 0 0  17.5 0 0  17.75 0 0  18 0 0  18.25 0 0  18.5 0 0  18.75 0 0  19 0 0  19.25 0 0  19.5 0 0  19.75 0 0  20 0 0  20.25 0 0  20.5 0 0  20.75 0 0  21 0 0  21.25 0 0  21.5 0 0  21.75 0 0  22 0 0  22.25 0 0  22.5 0 0  22.75 0 0  23 0 0  23.25 0 0  23.5 0 0  23.75 0 0  24 0 0  24.25 0 0  24.5 0 0  24.75 0 0  25 0 0  0 0.25 0  0.25 0.25 0  0.5 0.25 0  0.75 0.25 0  1 0.25 0  1.25 0.25 0  1.5 0.25 0  1.75 0.25 0  2 0.25 0  2.25 0.25 0  2.5 0.25 0  2.75 0.25 0  3 0.25 0  3.25 0.25 0  3.5 0.25 0  3.75 0.25 0  4 0.25 0  4.25 0.25 0  4.5 0.25 0  4.75 0.25 0  5 0.25 0  5.25 0.25 0  5.5 0.25 0  5.75 0.25 0  6 0.25 0  6.25 0.25 0  6.5 0.25 0  6.75 0.25 0  7 0.25 0  7.25 0.25 0  7.5 0.25 0  7.75 0.25 0  8 0.25 0  8.25 0.25 0  8.5 0.25 0  8.75 0.25 0  9 0.25 0  9.25 0.25 0  9.5 0.25 0  9.75 0.25 0  10 0.25 0  10.25 0.25 0  10.5 0.25 0  10.75 0.25 0  11 0.25 0  11.25 0.25 0  11.5 0.25 0  11.75 0.25 0  12 0.25 0  12.25 0.25 0  12.5 0.25 0  12.75 0.25 0  13 0.25 0  13.25 0.25 0  13.5 0.25 0  13.75 0.25 0  14 0.25 0  14.25 0.25 0  14.5 0.25 0  14.75 0.25 0  15 0.25 0  15.25 0.25 0  15.5 0.25 0  15.75 0.25 0  16 0.25 0  16.25 0.25 0  16.5 0.25 0  16.75 0.25 0  17 0.25 0  17.25 0.25 0  17.5 0.25 0  17.75 0.25 0  18 0.25 0  18.25 0.25 0  18.5 0.25 0  18.75 0.25 0  19 0.25 0  19.25 0.25 0  19.5 0.25 0  19.75 0.25 0  20 0.25 0  20.25 0.25 0  20.5 0.25 0  20.75 0.25 0  21 0.25 0  21.25 0.25 0  21.5 0.25 0  21.75 0.25 0  22 0.25 0  22.25 0.25 0  22.5 0.25 0  22.75 0.25 0  23 0.25 0  23.25 0.25 0  23.5 0.25 0  23.75 0.25 0  24 0.25 0  24.25 0.25 0  24.5 0.25 0  24.75 0.25 0  25 0.25 0  0 0.5 0  0.25 0.5 0  0.5 0.5 0  0.75 0.5 0  1 0.5 0  1.25 0.5 0  1.5 0.5 0  1.75 0.5 0  2 0.5 0  2.25 0.5 0  2.5 0.5 0  2.75 0.5 0  3 0.5 0  3.25 0.5 0  3.5 0.5 0  3.75 0.5 0  4 0.5 0  4.25 0.5 0  4.5 0.5 0  4.75 0.5 0  5 0.5 0  5.25 0.5 0  5.5 0.5 0  5.75 0.5 0  6 0.5 0  6.25 0.5 0  6.5 0.5 0  6.75 0.5 0  7 0.5 0  7.25 0.5 0  7.5 0.5 0  7.75 0.5 0  8 0.5 0  8.25 0.5 0  8.5 0.5 0  8.75 0.5 0  9 0.5 0  9.25 0.5 0  9.5 0.5 0  9.75 0.5 0  10 0.5 0  10.25 0.5 0  10.5 0.5 0  10.75 0.5 0  11 0.5 0  11.25 0.5 0  11.5 0.5 0  11.75 0.5 0  12 0.5 0  12.25 0.5 0  12.5 0.5 0  12.75 0.5 0  13 0.5 0  13.25 0.5 0  13.5 0.5 0  13.75 0.5 0  14 0.5 0  14.25 0.5 0  14.5 0.5 0  14.75 0.5 0  15 0.5 0  15.25 0.5 0  15.5 0.5 0  15.75 0.5 0  16 0.5 0  16.25 0.5 0  16.5 0.5 0  16.75 0.5 0  17 0.5 0  17.25 0.5 0  17.5 0.5 0  17.75 0.5 0  18 0.5 0  18.25 0.5 0  18.5 0.5 0  18.75 0.5 0  19 0.5 0  19.25 0.5 0  19.5 0.5 0  19.75 0.5 0  20 0.5 0  20.25 0.5 0  20.5 0.5 0  20.75 0.5 0  21 0.5 0  21.25 0.5 0  21.5 0.5 0  21.75 0.5 0  22 0.5 0  22.25 0.5 0  22.5 0.5 0  22.75 0.5 0  23 0.5 0  23.25 0.5 0  23.5 0.5 0  23.75 0.5 0  24 0.5 0  24.25 0.5 0  24.5 0.5 0  24.75 0.5 0  25 0.5 0  0 0.75 0  0.25 0.75 0  0.5 0.75 0  0.75 0.75 0  1 0.75 0  1.25 0.75 0  1.5 0.75 0  1.75 0.75 0  2 0.75 0  2.25 0.75 0  2.5 0.75 0  2.75 0.75 0  3 0.75 0  3.25 0.75 0  3.5 0.75 0  3.75 0.75 0  4 0.75 0  4.25 0.75 0  4.5 0.75 0  4.75 0.75 0  5 0.75 0  5.25 0.75 0  5.5 0.75 0  5.75 0.75 0  6 0.75 0  6.25 0.75 0  6.5 0.75 0  6.75 0.75 0  7 0.75 0  7.25 0.75 0  7.5 0.75 0  7.75 0.75 0  8 0.75 0  8.25 0.75 0  8.5 0.75 0  8.75 0.75 0  9 0.75 0  9.25 0.75 0  9.5 0.75 0  9.75 0.75 0  10 0.75 0  10.25 0.75 0  10.5 0.75 0  10.75 0.75 0  11 0.75 0  11.25 0.75 0  11.5 0.75 0  11.75 0.75 0  12 0.75 0  12.25 0.75 0  12.5 0.75 0  12.75 0.75 0  13 0.75 0  13.25 0.75 0  13.5 0.75 0  13.75 0.75 0  14 0.75 0  14.25 0.75 0  14.5 0.75 0  14.75 0.75 0  15 0.75 0  15.25 0.75 0  15.5 0.75 0  15.75 0.75 0  16 0.75 0  16.25 0.75 0  16.5 0.75 0  16.75 0.75 0  17 0.75 0  17.25 0.75 0  17.5 0.75 0  17.75 0.75 0  18 0.75 0  18.25 0.75 0  18.5 0.75 0  18.75 0.75 0  19 0.75 0  19.25 0.75 0  19.5 0.75 0  19.75 0.75 0  20 0.75 0  20.25 0.75 0  20.5 0.75 0  20.75 0.75 0  21 0.75 0  21.25 0.75 0  21.5 0.75 0  21.75 0.75 0  22 0.75 0  22.25 0.75 0  22.5 0.75 0  22.75 0.75 0  23 0.75 0  23.25 0.75 0  23.5 0.75 0  23.75 0.75 0  24 0.75 0  24.25 0.75 0  24.5 0.75 0  24.75 0.75 0  25 0.75 0  0 1 0  0.25 1 0  0.5 1 0  0.75 1 0  1 1 0  1.25 1 0  1.5 1 0  1.75 1 0  2 1 0  2.25 1 0  2.5 1 0  2.75 1 0  3 1 0  3.25 1 0  3.5 1 0  3.75 1 0  4 1 0  4.25 1 0  4.5 1 0  4.75 1 0  5 1 0  5.25 1 0  5.5 1 0  5.75 1 0  6 1 0  6.25 1 0  6.5 1 0  6.75 1 0  7 1 0  7.25 1 0  7.5 1 0  7.75 1 0  8 1 0  8.25 1 0  8.5 1 0  8.75 1 0  9 1 0  9.25 1 0  9.5 1 0  9.75 1 0  10 1 0  10.25 1 0  10.5 1 0  10.75 1 0  11 1 0  11.25 1 0  11.5 1 0  11.75 1 0  12 1 0  12.25 1 0  12.5 1 0  12.75 1 0  13 1 0  13.25 1 0  13.5 1 0  13.75 1 0  14 1 0  14.25 1 0  14.5 1 0  14.75 1 0  15 1 0  15.25 1 0  15.5 1 0  15.75 1 0  16 1 0  16.25 1 0  16.5 1 0  16.75 1 0  17 1 0  17.25 1 0  17.5 1 0  17.75 1 0  18 1 0  18.25 1 0  18.5 1 0  18.75 1 0  19 1 0  19.25 1 0  19.5 1 0  19.75 1 0  20 1 0  20.25 1 0  20.5 1 0  20.75 1 0  21 1 0  21.25 1 0  21.5 1 0  21.75 1 0  22 1 0  22.25 1 0  22.5 1 0  22.75 1 0  23 1 0  23.25 1 0  23.5 1 0  23.75 1 0  24 1 0  24.25 1 0  24.5 1 0  24.75 1 0  25 1 0  0 1.25 0  0.25 1.25 0  0.5 1.25 0  0.75 1.25 0  1 1.25 0  1.25 1.25 0  1.5 1.25 0  1.75 1.25 0  2 1.25 0  2.25 1.25 0  2.5 1.25 0  2.75 1.25 0  3 1.25 0  3.25 1.25 0  3.5 1.25 0  3.75 1.25 0  4 1.25 0  4.25 1.25 0  4.5 1.25 0  4.75 1.25 0  5 1.25 0  5.25 1.25 0  5.5 1.25 0  5.75 1.25 0  6 1.25 0  6.25 1.25 0  6.5 1.25 0  6.75 1.25 0  7 1.25 0  7.25 1.25 0  7.5 1.25 0  7.75 1.25 0  8 1.25 0  8.25 1.25 0  8.5 1.25 0  8.75 1.25 0  9 1.25 0  9.25 1.25 0  9.5 1.25 0  9.75 1.25 0  10 1.25 0  10.25 1.25 0  10.5 1.25 0  10.75 1.25 0  11 1.25 0  11.25 1.25 0  11.5 1.25 0  11.75 1.25 0  12 1.25 0  12.25 1.25 0  12.5 1.25 0  12.75 1.25 0  13 1.25 0  13.25 1.25 0  13.5 1.25 0  13.75 1.25 0  14 1.25 0  14.25 1.25 0  14.5 1.25 0  14.75 1.25 0  15 1.25 0  15.25 1.25 0  15.5 1.25 0  15.75 1.25 0  16 1.25 0  16.25 1.25 0  16.5 1.25 0  16.75 1.25 0  17 1.25 0  17.25 1.25 0  17.5 1.25 0  17.75 1.25 0  18 1.25 0  18.25 1.25 0  18.5 1.25 0  18.75 1.25 0  19 1.25 0  19.25 1.25 0  19.5 1.25 0  19.75 1.25 0  20 1.25 0  20.25 1.25 0  20.5 1.25 0  20.75 1.25 0  21 1.25 0  21.25 1.25 0  21.5 1.25 0  21.75 1.25 0  22 1.25 0  22.25 1.25 0  22.5 1.25 0  22.75 1.25 0  23 1.25 0  23.25 1.25 0  23.5 1.25 0  23.75 1.25 0  24 1.25 0  24.25 1.25 0  24.5 1.25 0  24.75 1.25 0  25 1.25 0  0 1.5 0  0.25 1.5 0  0.5 1.5 0  0.75 1.5 0  1 1.5 0  1.25 1.5 0  1.5 1.5 0  1.75 1.5 0  2 1.5 0  2.25 1.5 0  2.5 1.5 0  2.75 1.5 0  3 1.5 0  3.25 1.5 0  3.5 1.5 0  3.75 1.5 0  4 1.5 0  4.25 1.5 0  4.5 1.5 0  4.75 1.5 0  5 1.5 0  5.25 1.5 0  5.5 1.5 0  5.75 1.5 0  6 1.5 0  6.25 1.5 0  6.5 1.5 0  6.75 1.5 0  7 1.5 0  7.25 1.5 0  7.5 1.5 0  7.75 1.5 0  8 1.5 0  8.25 1.5 0  8.5 1.5 0  8.75 1.5 0  9 1.5 0  9.25 1.5 0  9.5 1.5 0  9.75 1.5 0  10 1.5 0  10.25 1.5 0  10.5 1.5 0  10.75 1.5 0  11 1.5 0  11.25 1.5 0  11.5 1.5 0  11.75 1.5 0  12 1.5 0  12.25 1.5 0  12.5 1.5 0  12.75 1.5 0  13 1.5 0  13.25 1.5 0  13.5 1.5 0  13.75 1.5 0  14 1.5 0  14.25 1.5 0  14.5 1.5 0  14.75 1.5 0  15 1.5 0  15.25 1.5 0  15.5 1.5 0  15.75 1.5 0  16 1.5 0  16.25 1.5 0  16.5 1.5 0  16.75 1.5 0  17 1.5 0  17.25 1.5 0  17.5 1.5 0  17.75 1.5 0  18 1.5 0  18.25 1.5 0  18.5 1.5 0  18.75 1.5 0  19 1.5 0  19.25 1.5 0  19.5 1.5 0  19.75 1.5 0  20 1.5 0  20.25 1.5 0  20.5 1.5 0  20.75 1.5 0  21 1.5 0  21.25 1.5 0  21.5 1.5 0  21.75 1.5 0  22 1.5 0  22.25 1.5 0  22.5 1.5 0  22.75 1.5 0  23 1.5 0  23.25 1.5 0  23.5 1.5 0  23.75 1.5 0  24 1.5 0  24.25 1.5 0  24.5 1.5 0  24.75 1.5 0  25 1.5 0  0 1.75 0  0.25 1.75 0  0.5 1.75 0  0.75 1.75 0  1 1.75 0  1.25 1.75 0  1.5 1.75 0  1.75 1.75 0  2 1.75 0  2.25 1.75 0  2.5 1.75 0  2.75 1.75 0  3 1.75 0  3.25 1.75 0  3.5 1.75 0  3.75 1.75 0  4 1.75 0  4.25 1.75 0  4.5 1.75 0  4.75 1.75 0  5 1.75 0  5.25 1.75 0  5.5 1.75 0  5.75 1.75 0  6 1.75 0  6.25 1.75 0  6.5 1.75 0  6.75 1.75 0  7 1.75 0  7.25 1.75 0  7.5 1.75 0  7.75 1.75 0  8 1.75 0  8.25 1.75 0  8.5 1.75 0  8.75 1.75 0  9 1.75 0  9.25 1.75 0  9.5 1.75 0  9.75 1.75 0  10 1.75 0  10.25 1.75 0  10.5 1.75 0  10.75 1.75 0  11 1.75 0  11.25 1.75 0  11.5 1.75 0  11.75 1.75 0  12 1.75 0  12.25 1.75 0  12.5 1.75 0  12.75 1.75 0  13 1.75 0  13.25 1.75 0  13.5 1.75 0  13.75 1.75 0  14 1.75 0  14.25 1.75 0  14.5 1.75 0  14.75 1.75 0  15 1.75 0  15.25 1.75 0  15.5 1.75 0  15.75 1.75 0  16 1.75 0  16.25 1.75 0  16.5 1.75 0  16.75 1.75 0  17 1.75 0  17.25 1.75 0  17.5 1.75 0  17.75 1.75 0  18 1.75 0  18.25 1.75 0  18.5 1.75 0  18.75 1.75 0  19 1.75 0  19.25 1.75 0  19.5 1.75 0  19.75 1.75 0  20 1.75 0  20.25 1.75 0  20.5 1.75 0  20.75 1.75 0  21 1.75 0  21.25 1.75 0  21.5 1.75 0  21.75 1.75 0  22 1.75 0  22.25 1.75 0  22.5 1.75 0  22.75 1.75 0  23 1.75 0  23.25 1.75 0  23.5 1.75 0  23.75 1.75 0  24 1.75 0  24.25 1.75 0  24.5 1.75 0  24.75 1.75 0  25 1.75 0  0 2 0  0.25 2 0  0.5 2 0  0.75 2 0  1 2 0  1.25 2 0  1.5 2 0  1.75 2 0  2 2 0  2.25 2 0  2.5 2 0  2.75 2 0  3 2 0  3.25 2 0  3.5 2 0  3.75 2 0  4 2 0  4.25 2 0  4.5 2 0  4.75 2 0  5 2 0  5.25 2 0  5.5 2 0  5.75 2 0  6 2 0  6.25 2 0  6.5 2 0  6.75 2 0  7 2 0  7.25 2 0  7.5 2 0  7.75 2 0  8 2 0  8.25 2 0  8.5 2 0  8.75 2 0  9 2 0  9.25 2 0  9.5 2 0  9.75 2 0  10 2 0  10.25 2 0  10.5 2 0  10.75 2 0  11 2 0  11.25 2 0 
[...]
<PointData  Scalars="f_23"> 
<DataArray  type="Float64"  Name="f_23"  format="ascii">7.8862150914667672e-01  7.8294776621624973e-01  7.7038335785026235e-01  7.4958750598343715e-01  7.1930541978910978e-01  6.7808222166188603e-01  6.2430998509867974e-01  5.5643864581623570e-01  4.7332513317623115e-01  3.7468889697878588e-01  2.6158010523771935e-01  1.3669381002983261e-01  4.3404184801296144e-03  -1.3003184405044585e-01  -2.6068007983188418e-01  -3.8250876097947550e-01  -4.9179343343546572e-01  -5.8648911195228737e-01  -6.6612445793813813e-01  -7.3142899656510318e-01  -7.8387589049007511e-01  -8.2527457551986394e-01  -8.5747481760469180e-01  -8.8218737128889557e-01  -9.0089780673050290e-01  -9.1484299172829431e-01  -9.2502383425466339e-01  -9.3223548748919816e-01  -9.3710331522184054e-01  -9.4011816534452297e-01  -9.4166787748217762e-01  -9.4206389399109935e-01  -9.4156283546200514e-01  -9.4038332870087638e-01  -9.3871850474184571e-01  -9.3674458803574712e-01  -9.3462597784944934e-01  -9.3251723347672488e-01  -9.3056243572898323e-01  -9.2889250130061685e-01  -9.2762114686481512e-01  -9.2684029688586755e-01  -9.2661576209820617e-01  -9.2698395333863959e-01  -9.2795022710658404e-01  -9.2948919963848486e-01  -9.3154705378305480e-01  -9.3404555013943424e-01  -9.3688719353888150e-01  -9.3996083680983222e-01  -9.4314694098815410e-01  -9.4632174365045663e-01  -9.4935968224963696e-01  -9.5213353241978926e-01  -9.5451180567156069e-01  -9.5635296697787775e-01  -9.5749595264231369e-01  -9.5774627927722067e-01  -9.5685674002664867e-01  -9.5450131493220625e-01  -9.5024055734996526e-01  -9.4347653105491580e-01  -9.3339571705627411e-01  -9.1889985792766415e-01  -8.9852863226272361e-01  -8.7038614538242964e-01  -8.3209763002574588e-01  -7.8084453027307699e-01  -7.1355139571067983e-01  -6.2731098844715971e-01  -5.2010118824777674e-01  -3.9172720670158445e-01  -2.4471258946119887e-01  -8.4670704680067557e-02  8.0267908908972938e-02  2.4098569090983543e-01  3.8930999669720662e-01  5.1953113420381247e-01  6.2897577519241088e-01  7.1766344886675504e-01  7.8745704364714630e-01  8.4115215544064970e-01  8.8177043463566285e-01  9.1212703859776822e-01  9.3462818968669614e-01  9.5122025027471968e-01  9.6342062122188488e-01  9.7238292548188898e-01  9.7896925549009572e-01  9.8381634031262122e-01  9.8739077473247416e-01  9.9003271325395270e-01  9.9198929350983511e-01  9.9343963976380523e-01  9.9451328038876607e-01  9.9530355660255998e-01  9.9587728097923167e-01  9.9628159578282849e-01  9.9654868609882963e-01  9.9669861745985144e-01  9.9673958048229316e-01  7.7960869817939771e-01  7.7514801204437922e-01  7.6270560657531783e-01  7.4171346237404556e-01  7.1110213352511908e-01  6.6948526630095173e-01  6.1530794822102108e-01  5.4708033868344119e-01  4.6372802450069828e-01  3.6503825068033485e-01  2.5211235224540596e-01  1.2766390571408032e-01  -4.0187824020368685e-03  -1.3754483046194085e-01  -2.6724744005215889e-01  -3.8810684673931795e-01  -4.9646044107337822e-01  -5.9030575381093475e-01  -6.6919528956942786e-01  -7.3386721442069125e-01  -7.8579229215509383e-01  -8.2677045476932409e-01  -8.5863819670916330e-01  -8.8309179004522753e-01  -9.0160283813036068e-01  -9.1539573901228655e-01  -9.2546083730551187e-01  -9.3258466106949589e-01  -9.3738570872324412e-01  -9.4034945402384651e-01  -9.4185957014688271e-01  -9.4222428247223267e-01  -9.4169772883337766e-01  -9.4049661949047969e-01  -9.3881261157414653e-01  -9.3682081282437280e-01  -9.3468480763445994e-01  -9.3255860812447178e-01  -9.3058599352696625e-01  -9.2889780561729229e-01  -9.2760788938572991e-01  -9.2680846752693868e-01  -9.2656577346560087e-01  -9.2691670901465451e-01  -9.2786712780359604e-01  -9.2939208827504272e-01  -9.3143810809779715e-01  -9.3392713772124314e-01  -9.3676170763696631e-01  -9.3983053128285399e-01  -9.4301377944328146e-01  -9.4618727213838971e-01  -9.4922492813030446e-01  -9.5199892548940279e-01  -9.5437711233301181e-01  -9.5621722473982695e-01  -9.5735739089527050e-01  -9.5760221356612840e-01  -9.5670343200523122e-01  -9.5433380128354506e-01  -9.5005247282917926e-01  -9.4325999097590141e-01  -9.3314139287359643e-01  -9.1859748369229277e-01  -8.9816831056945201e-01  -8.6996092018983806e-01  -8.3160769790654698e-01  -7.8030286437688490e-01  -7.1298911010666677e-01  -6.2677857400679993e-01  -5.1966027885645671e-01  -3.9143000725514793e-01  -2.4457489294930862e-01  -8.4655120519964530e-02  8.0241858370063437e-02  2.4100577154200051e-01  3.8943251459060985e-01  5.1976390019256380e-01  6.2928797498323541e-01  7.1800871558104740e-01  7.8779347907576147e-01  8.4145201774800493e-01  8.8202084686007642e-01  9.1232620587294155e-01  9.3478078232831519e-01  9.5133373356173057e-01  9.6350293485277971e-01  9.7244128043791822e-01  9.7900966518197530e-01  9.8384356105089077e-01  9.8740843780089305e-01  9.9004352277761298e-01  9.9199522643217775e-01  9.9344212093457418e-01  9.9451332543045379e-01  9.9530188538415487e-01  9.9587441196383697e-01  9.9627794791943713e-01  9.9654478256250578e-01  9.9669580197275742e-01  9.9674321073970140e-01  7.5676163077539305e-01  7.5241764318462145e-01  7.3969923691492612e-01  7.1806098994951706e-01  6.8652113040281404e-01  6.4378840676651139e-01  5.8842594225015421e-01  5.1909772798320342e-01  4.3491830977611257e-01  3.3588025179809244e-01  2.2326872811527179e-01  9.9910584735043675e-02  -2.9905089786517975e-02  -1.6091211620840018e-01  -2.8766711063833084e-01  -4.0541560092662182e-01  -5.1074021997875718e-01  -6.0182046865150829e-01  -6.7831267733709588e-01  -7.4098912486095936e-01  -7.9130503880165992e-01  -8.3101651333845961e-01  -8.6190484501166131e-01  -8.8561076550912676e-01  -9.0355589609745779e-01  -9.1692255282726010e-01  -9.2666713457633743e-01  -9.3354954653056454e-01  -9.3816778201533291e-01  -9.4099169050480691e-01  -9.4239310160038425e-01  -9.4267127409491447e-01  -9.4207355237061541e-01  -9.4081150081114573e-01  -9.3907290055704706e-01  -9.3702999168617629e-01  -9.3484432365925441e-01  -9.3266858903170469e-01  -9.3064587880588612e-01  -9.2890690569394396e-01  -9.2756586757209958e-01  -9.2671572867082852e-01  -9.2642373915173759e-01  -9.2672796230586807e-01  -9.2763541986372322e-01  -9.2912221252052618e-01  -9.3113566165169226e-01  -9.3359820162483764e-01  -9.3641248392895371e-01  -9.3946697540812296e-01  -9.4264126074561172e-01  -9.4581028494766928e-01  -9.4884686342066538e-01  -9.5162190057266338e-01  -9.5400184542293098e-01  -9.5584293364926987e-01  -9.5698169118039211e-01  -9.5722099144293404e-01  -9.5631067200184494e-01  -9.5392135955091861e-01  -9.4960980774236536e-01  -9.4277389872051731e-01  -9.3259585433025549e-01  -9.1797381561322877e-01  -8.9744592351454311e-01  -8.6911908335888477e-01  -8.3062870556242030e-01  -7.7917672416306605e-01  -7.1171913891274619e-01  -6.2538608498160697e-01  -5.1818543549789875e-01  -3.8992623862975268e-01  -2.4309726824972130e-01  -8.3247792978099838e-02  8.1551886031209900e-02  2.4220545587464448e-01  3.9051456841057558e-01  5.2072107578229498e-01  6.3011321389141350e-01  7.1869876892819251e-01  7.8835187507563664e-01  8.4188932695549579e-01  8.8235269590888277e-01  9.1257048533814267e-01  9.3495520939556942e-01  9.5145426146182399e-01  9.6358300051260026e-01  9.7249166247217556e-01  9.7903869802070931e-01  9.8385750833064722e-01  9.8741190054507366e-01  9.9003981646075501e-01  9.9198669976752107e-01  9.9343041150354228e-01  9.9449955862549566e-01  9.9528682860679307e-01  9.9585859987559422e-01  9.9626180081761873e-01  9.9652874963368521e-01  9.9668053796781941e-01  9.9672941442475849e-01  7.1817000767102612e-01  7.1364789099291714e-01  7.0031192154193556e-01  6.7760448109349669e-01  6.4461515480478493e-01  6.0017918081461663e-01  5.4304376380649766e-01  4.7211988027275953e-01  3.8682342888119892e-01  2.8746934509637634e-01  1.7562523813594222e-01  5.4283867114916368e-02  -7.2280202302610910e-02  -1.9901382616448554e-01  -3.2084099764219004e-01  -4.3343775517369787e-01  -5.3378129437661281e-01  -6.2034066972112489e-01  -6.9293352401818720e-01  -7.5237990196770066e-01  -8.0010284434994694e-01  -8.3778170169313637e-01  -8.6710425811835523e-01  -8.8961873292678106e-01  -9.0666447214413726e-01  -9.1935516097983583e-01  -9.2859225488554353e-01  -9.3509283551600864e-01  -9.3942207969222036e-01  -9.4202493270204191e-01  -9.4325440648140957e-01  -9.4339554926884017e-01  -9.4268496113253442e-01  -9.4132608242987914e-01  -9.3950058520584778e-01  -9.3737619664757055e-01  -9.3511126773142383e-01  -9.3285641750730819e-01  -9.3075365218729367e-01  -9.2893347209361743e-01  -9.2751061287756376e-01  -9.2657918175366549e-01  -9.2620800304087592e-01  -9.2643694654341835e-01  -9.2727486271792070e-01  -9.2869950107861277e-01  -9.3065947856855724e-01  -9.3307804476050582e-01  -9.3585811549561349e-01  -9.3888785859908519e-01  -9.4204603430958511e-01  -9.4520631183144632e-01  -9.4823987156407186e-01  -9.5101571552198239e-01  -9.5339819837555506e-01  -9.5524131661067047e-01  -9.5637922389384555e-01  -9.5661226284727086e-01  -9.5568752244000255e-01  -9.5327257988151559e-01  -9.4892075064081582e-01  -9.4202603089891301e-01  -9.3176633381630281e-01  -9.1703526454655515e-01  -8.9636668965362198e-01  -8.6786443342964192e-01  -8.2916352566895146e-01  -7.7747030669527706e-01  -7.0975231921071080e-01  -6.2316012995815984e-01  -5.1573063163605393e-01  -3.8730658330366075e-01  -2.4040732040572677e-01  -8.0599985889854689e-02  8.4046587420414431e-02  2.4445670968442712e-01  3.9246483499936835e-01  5.2234810589810254e-01  6.3142472207246048e-01  7.1972327480409015e-01  7.8912923906025612e-01  8.4246301590896022e-01  8.8276446827003308e-01  9.1285735357677344e-01  9.3514816361779707e-01  9.5157816373041149e-01  9.6365714226459998e-01  9.7253061591994772e-01  9.7905322745155143e-01  9.8385541304814983e-01  9.8739873307699144e-01  9.9001946288664411e-01  9.9196183178769914e-01  9.9340282971495242e-01  9.9447044906531401e-01  9.9525695374351109e-01  9.9582844294869588e-01  9.9623167860640127e-01  9.9649889759683319e-01  9.9665113145422801e-01  9.9670037633958342e-01  6.6187836012573042e-01  6.5709484783847838e-01  6.4293189168623444e-01  6.1886526536805408e-01  5.8408958093085972e-01  5.3761863950514166e-01  4.7845761741541870e-01  4.0585459238224814e-01  3.1962134610681114e-01  2.2047624495233234e-01  1.1031587791242396e-01  -7.7064941758841748e-03  -1.2939392997189944e-01  -2.5001661042040696e-01  -3.6499943265914214e-01  -4.7057743068171343e-01  -5.6422335915463884e-01  -6.4475857751663535e-01  -7.1218734913038717e-01  -7.6737358313015880e-01  -8.1168575456150227e-01  -8.4669528088153578e-01  -8.7396341864808769e-01  -8.9491519959748578e-01  -9.1078130715194183e-01  -9.2258519706033282e-01  -9.3115627609854013e-01  -9.3715554588437511e-01  -9.4110522939369634e-01  -9.4341766960130835e-01  -9.4442122663688921e-01  -9.4438230953633617e-01  -9.4352340075860486e-01  -9.4203724072527439e-01  -9.4009743027424586e-01  -9.3786570934050817e-01  -9.3549616015117698e-01  -9.3313660738199078e-01  -9.3092756338722527e-01  -9.2899918815176319e-01  -9.2746687629310631e-01  -9.2642620931028696e-01  -9.2594807820092018e-01  -9.2607475461725741e-01  -9.2681755122571496e-01  -9.2815647250473465e-01  -9.3004194989190503e-01  -9.3239843165431413e-01  -9.3512931390229537e-01  -9.3812249969128580e-01  -9.4125578056361725e-01  -9.4440124441937479e-01  -9.4742799640840203e-01  -9.5020259142228114e-01  -9.5258666923839219e-01  -9.5443131338496612e-01  -9.5556759141575121e-01  -9.5579256260033629e-01  -9.5484976421853640e-01  -9.5240284423496691e-01  -9.4800068231674461e-01  -9.4103221680795079e-01  -9.3066963689035764e-01  -9.1580028125830615e-01  -8.9495165016464195e-01  -8.6622207884096702e-01  -8.2724375578117004e-01  -7.7522559512781153e-01  -7.0714679553017301e-01  -6.2018240761076038e-01  -5.1240848645411230e-01  -3.8371861919872569e-01  -2.3668441199247858e-01  -7.6910585439663504e-02  8.7526397611795925e-02  2.4757835874354803e-01  3.9513336758784789e-01  5.2453013771133050e-01  6.3313927555978233e-01  7.2102360177419311e-01  7.9008423743391809e-01  8.4314322983723555e-01  8.8323380539515572e-01  9.1316946262241872e-01  9.3534581616045998e-01  9.5169422155860295e-01  9.6371615985983261e-01  9.7255053899876243e-01  9.7904692864680354e-01  9.8383197019161728e-01  9.8736444090260356e-01  9.8997860719691044e-01  9.9191726786590895e-01  9.9335640703473427e-01  9.9442331934187533e-01  9.9520979270357890e-01  9.9578160924252213e-01  9.9618532565531703e-01  9.9645304365494225e-01  9.9660567753957596e-01  9.9665505446449254e-01  5.8595493250833830e-01  5.8092223276992305e-01  5.6587519693345478e-01  5.4037222731148105e-01  5.0376555330560091e-01  4.5531162885862908e-01  3.9434801218711457e-01  3.2053521720796208e-01  2.3414162781148190e-01  1.3631711495028559e-01  2.9268556717778598e-02  -8.3758591762677484e-02  -1.9875072089422297e-01  -3.1142070107513431e-01  -4.1780183105459412e-01  -5.1476628757157439e-01  -6.0032579862385249e-01  -6.7366702641943421e-01  -7.3497223035958570e-01  -7.8512789781288317e-01  -8.2542103183052629e-01  -8.5728731665334612e-01  -8.8213556284747929e-01  -9.0124494286513790e-01  -9.1571849180099640e-01  -9.2647402446186600e-01  -9.3425666530965834e-01  -9.3966177411376350e-01  -9.4316121891093929e-01  -9.4512903850781638e-01  -9.4586454946818033e-01  -9.4561212729580879e-01  -9.4457749841656591e-01  -9.4294064108060904e-01  -9.4086547054033876e-01  -9.3850648577818441e-01  -9.3601255153906571e-01  -9.3352802096403964e-01  -9.3119148720195544e-01  -9.2913258215245365e-01  -9.2746739345854834e-01  -9.2629320981987506e-01  -9.2568338718976984e-01  -9.2568311795160452e-01  -9.2630676252387567e-01  -9.2753717385649159e-01  -9.2932714183261811e-01  -9.3160275762956546e-01  -9.3426820442147640e-01  -9.3721126780756503e-01  -9.4030875264612235e-01  -9.4343099082710680e-01  -9.4644470008290249e-01  -9.4921356369404253e-01  -9.5159599579191778e-01  -9.5343959244395726e-01  -9.5457171229315407e-01  -9.5478546609733439e-01  -9.5382012684299866e-01  -9.5133463643960203e-01  -9.4687256957184662e-01  -9.3981680760405539e-01  -9.2933264541714555e-01  -9.1429978304028992e-01  -8.9323779051768637e-01  -8.6423786718687534e-01  -8.2492793181362190e-01  -7.7251887762647509e-01  -7.0400281656498931e-01  -6.1658372354890767e-01  -5.0838559390904314e-01  -3.7936593750268033e-01  -2.3216371503380201e-01  -7.2433475768739611e-02  9.1736745308708456e-02  2.5133342132065994e-01  3.9831427232681960e-01  5.2709851019130283e-01  6.3512482227218547e-01  7.2249941956547525e-01  7.9114179996405287e-01  8.4387396163702488e-01  8.8371867019469930e-01  9.1347490379646268e-01  9.3552361684502150e-01  9.5178328020330116e-01  9.6374490077645492e-01  9.7253928066003037e-01  9.7900992160403666e-01  9.8377902932482120e-01  9.8730219640983774e-01  9.8991143571613094e-01  9.9184797133800429e-01  9.9328670009302178e-01  9.9435417503820733e-01  9.9514168519868018e-01  9.9571468203744917e-01  9.9611950506133862e-01  9.9638810927319077e-01  9.9654129620088350e-01  9.9659078985282590e-01  4.8906791969940261e-01  4.8387097442472232e-01  4.6806212425218363e-01  4.4132835741550014e-01  4.0323412470619369e-01  3.5333900379379862e-01  2.9137104724882745e-01  2.1744497060527948e-01  1.3229456131188938e-01  3.7463922621021724e-02  -6.4615181792849488e-02  -1.7072483700939381e-01  -2.7716178724482232e-01  -3.8018627507776342e-01  -4.7650294405587623e-01  -5.6363969938704017e-01  -6.4013248473134465e-01  -7.0550104945157077e-01  -7.6006912686856443e-01  -8.0471241500811830e-01  -8.4060884524370749e-01  -8.6903645545900954e-01  -8.9123435870912993e-01  -9.0832221082441122e-01  -9.2126450713334251e-01  -9.3086470428313672e-01  -9.3777667082137983e-01  -9.4252456106952054e-01  -9.4552546121626024e-01  -9.4711158600177370e-01  -9.4755040295132176e-01  -9.4706200469740920e-01  -9.4583354234988637e-01  -9.4403074651940433e-01  -9.4180662593728470e-01  -9.3930743653471827e-01  -9.3667601630182606e-01  -9.3405261956097174e-01  -9.3157347414341796e-01  -9.2936742246740389e-01  -9.2755117064055426e-01  -9.2622382225180144e-01  -9.2546147286659897e-01  -9.2531264928676549e-01  -9.2579527235675441e-01  -9.2689560606754484e-01  -9.2856935811592156e-01  -9.3074476767703485e-01  -9.3332721252549122e-01  -9.3620463974535295e-01  -9.3925300130944001e-01  -9.4234085958268821e-01  -9.4533239401940805e-01  -9.4808814649710327e-01  -9.5046293931443637e-01  -9.5230044096652577e-01  -9.5342380606321253e-01  -9.5362165959597212e-01  -9.5262843635622008e-01  -9.5009775955291476e-01  -9.4556723901793382e-01  -9.3841298044274790e-01  -9.2779259908670542e-01  -9.1257731374969697e-01  -8.9127791506616860e-01  -8.6197774119924453e-01  -8.2230010291152467e-01  -7.6945836675878276e-01  -7.0045951151468266e-01  -6.1254051621957251e-01  -5.0387985489298104e-01  -3.7450737331664330e-01  -2.2713771467398011e-01  -6.7480440445103443e-02  9.6365574887104552e-02  2.5542874356261008e-01  4.0174801848728792e-01  5.2983503294336853e-01  6.3720540296872696e-01  7.2401308960912480e-01  7.9219635859387461e-01  8.4457504838365371e-01  8.8415832236165159e-01  9.1372747921475683e-01  9.3564614678358415e-01  9.5181788878266449e-01  9.6372181578808291e-01  9.7247968266186835e-01  9.7892833345871255e-01  9.8368518985384812e-01  9.8720246911076315e-01  9.8980983844340875e-01  9.9174691384655023e-01  9.9318750412688306e-01  9.9425743622061347e-01  9.9504752154324250e-01  9.9562290180158086e-01  9.9602971706156884e-01  9.9629979171438654e-01  9.9645383640783547e-01  9.9650350917676234e-01  3.7130953508272085e-01  3.6609083979083112e-01  3.4983749639472167e-01  3.2240037680137146e-01  2.8359663040515543e-01  2.3332616592637101e-01  1.7172852662206389e-01  9.9362086094927388e-02  1.7371322408293605e-02  -7.2407211789726159e-02  -1.6745321479111680e-01  -2.6471967207460173e-01  -3.6093040764921097e-01  -4.5295756572244439e-01  -5.3818286800617199e-01  -6.1474973006385281e-01  -6.8165516560173067e-01  -7.3868747521606459e-01  -7.8625898800408289e-01  -8.2519738206038939e-01  -8.5654808830694551e-01  -8.8141785388265337e-01  -9.0086839738522950e-01  -9.1585535832255038e-01  -9.2720174803362798e-01  -9.3559443315139212e-01  -9.4159413441688067e-01  -9.4565211137795779e-01  -9.4812914155839711e-01  -9.4931424068626069e-01  -9.4944179559925801e-01  -9.4870651402656059e-01  -9.4727598186050899e-01  -9.4530078690637653e-01  -9.4292221754947037e-01  -9.4027754769391469e-01  -9.3750292637771937e-01  -9.3473393401361182e-01  -9.3210396224197845e-01  -9.2974071812455306e-01  -9.2776132551644552e-01  -9.2626666201773145e-01  -9.2533568640016539e-01  -9.2502053921801686e-01  -9.2534311348271514e-01  -9.2629359174678716e-01  -9.2783115664806759e-01  -9.2988675190008618e-01  -9.3236745782150166e-01  -9.3516180215985190e-01  -9.3814518615959985e-01  -9.4118457332675187e-01  -9.4414164294731262e-01  -9.4687371116347918e-01  -9.4923181961501635e-01  -9.5105543802640535e-01  -9.5216318643314257e-01  -9.5233883575202305e-01  -9.5131159547791377e-01  -9.4872938084435121e-01  -9.4412346147647885e-01  -9.3686282526934395e-01  -9.2609712769420793e-01  -9.1068893556167485e-01  -8.8914027738809309e-01  -8.5952695874817298e-01  -8.1946849659774657e-01  -7.6618223776488847e-01  -6.9669239572976682e-01  -6.0827215995527506e-01  -4.9915810123053850e-01  -3.6945544990683621e-01  -2.2195562335741370e-01  -6.2421148291459776e-02  1.0104357685105823e-01  2.5951615784013732e-01  4.0512373631994891e-01  5.3247506924432697e-01  6.3916437374835444e-01  7.2539244024457494e-01  7.9311384917606642e-01  8.4514334638765731e-01  8.8447379182671249e-01  9.1386666785623594e-01  9.3566676507616364e-01  9.5176177476565327e-01  9.6361836129722589e-01  9.7234897024906830e-01  9.7878370984373275e-01  9.8353524748167975e-01  9.8705251123423510e-01  9.8966293235758529e-01  9.9160463233638352e-01  9.9305043849845442e-01  9.9412554561631195e-01  9.9492036665012329e-01  9.9549979771340302e-01  9.9590982994972477e-01  9.9618219685350118e-01  9.9633755091033294e-01  9.9638751134375159e-01  2.3500484512549064e-0