<?xml version="1.0"?>
<VTKFile type="UnstructuredGrid"  version="0.1"  >
<UnstructuredGrid>
<Piece  NumberOfPoints="10201" NumberOfCells="20000">
<Points>
<DataArray  type="Float64"  NumberOfComponents="3"  format="ascii">0 0 0  0.25 0 0  0.5 0 0  0.75 0 0  1 0 0  1.25 0 0  1.5 0 0  1.75 0 0  2 0 0  2.25 0 0  2.5 0 0  2.75 0 0  3 0 0  3.25 0 0  3.5 0 0  3.75 0 0  4 0 0  4.25 0 0  4.5 0 0  4.75 0 0  5 0 0  5.25 0 0  5.5 0 0  5.75 0 0  6 0 0  6.25 0 0  6.5 0 0  6.75 0 0  7 0 0  7.25 0 0  7.5 0 0  7.75 0 0  8 0 0  8.25 0 0  8.5 0 0  8.75 0 0  9 0 0  9.25 0 0  9.5 0 0  9.75 0 0  10 0 0  10.25 0 0  10.5 0 0  10.75 0 0  11 0 0  11.25 0 0  11.5 0 0  11.75 0 0  12 0 0  12.25 0 0  12.5 0 0  12.75 0 0  13 0 0  13.25 0 0  13.5 0 0  13.75 0 0  14 0 0  14.25 0 0  14.5 0 0  14.75 0 0  15 0 0  15.25 0 0  15.5 0 0  15.75 0 0  16 0 0  16.25 0 0  16.5 0 0  16.75 0 0  17 0 0  17.25 0 0  17.5 0 0  17.75 0 0  18 0 0  18.25 0 0  18.5 0 0  18.75 0 0  19 0 0  19.25 0 0  19.5 0 0  19.75 0 0  20 0 0  20.25 0 0  20.5 0 0  20.75 0 0  21 0 0  21.25 0 0  21.5 0 0  21.75 0 0  22 0 0  22.25 0 0  22.5 0 0  22.75 0 0  23 0 0  23.25 0 0  23.5 0 0  23.75 0 0  24 0 0  24.25 0 0  24.5 0 0  24.75 0 0  25 0 0  0 0.25 0  0.25 0.25 0  0.5 0.25 0  0.75 0.25 0  1 0.25 0  1.25 0.25 0  1.5 0.25 0  1.75 0.25 0  2 0.25 0  2.25 0.25 0  2.5 0.25 0  2.75 0.25 0  3 0.25 0  3.25 0.25 0  3.5 0.25 0  3.75 0.25 0  4 0.25 0  4.25 0.25 0  4.5 0.25 0  4.75 0.25 0  5 0.25 0  5.25 0.25 0  5.5 0.25 0  5.75 0.25 0  6 0.25 0  6.25 0.25 0  6.5 0.25 0  6.75 0.25 0  7 0.25 0  7.25 0.25 0  7.5 0.25 0  7.75 0.25 0  8 0.25 0  8.25 0.25 0  8.5 0.25 0  8.75 0.25 0  9 0.25 0  9.25 0.25 0  9.5 0.25 0  9.75 0.25 0  10 0.25 0  10.25 0.25 0  10.5 0.25 0  10.75 0.25 0  11 0.25 0  11.25 0.25 0  11.5 0.25 0  11.75 0.25 0  12 0.25 0  12.25 0.25 0  12.5 0.25 0  12.75 0.25 0  13 0.25 0  13.25 0.25 0  13.5 0.25 0  13.75 0.25 0  14 0.25 0  14.25 0.25 0  14.5 0.25 0  14.75 0.25 0  15 0.25 0  15.25 0.25 0  15.5 0.25 0  15.75 0.25 0  16 0.25 0  16.25 0.25 0  16.5 0.25 0  16.75 0.25 0  17 0.25 0  17.25 0.25 0  17.5 0.25 0  17.75 0.25 0  18 0.25 0  18.25 0.25 0  18.5 0.25 0  18.75 0.25 0  19 0.25 0  19.25 0.25 0  19.5 0.25 0  19.75 0.25 0  20 0.25 0  20.25 0.25 0  20.5 0.25 0  20.75 0.25 0  21 0.25 0  21.25 0.25 0  21.5 0.25 0  21.75 0.25 0  22 0.25 0  22.25 0.25 0  22.5 0.25 0  22.75 0.25 0  23 0.25 0  23.25 0.25 0  23.5 0.25 0  23.75 0.25 0  24 0.25 0  24.25 0.25 0  24.5 0.25 0  24.75 0.25 0  25 0.25 0  0 0.5 0  0.25 0.5 0  0.5 0.5 0  0.75 0.5 0  1 0.5 0  1.25 0.5 0  1.5 0.5 0  1.75 0.5 0  2 0.5 0  2.25 0.5 0  2.5 0.5 0  2.75 0.5 0  3 0.5 0  3.25 0.5 0  3.5 0.5 0  3.75 0.5 0  4 0.5 0  4.25 0.5 0  4.5 0.5 0  4.75 0.5 0  5 0.5 0  5.25 0.5 0  5.5 0.5 0  5.75 0.5 0  6 0.5 0  6.25 0.5 0  6.5 0.5 0  6.75 0.5 0  7 0.5 0  7.25 0.5 0  7.5 0.5 0  7.75 0.5 0  8 0.5 0  8.25 0.5 0  8.5 0.5 0  8.75 0.5 0  9 0.5 0  9.25 0.5 0  9.5 0.5 0  9.75 0.5 0  10 0.5 0  10.25 0.5 0  10.5 0.5 0  10.75 0.5 0  11 0.5 0  11.25 0.5 0  11.5 0.5 0  11.75 0.5 0  12 0.5 0  12.25 0.5 0  12.5 0.5 0  12.75 0.5 0  13 0.5 0  13.25 0.5 0  13.5 0.5 0  13.75 0.5 0  14 0.5 0  14.25 0.5 0  14.5 0.5 0  14.75 0.5 0  15 0.5 0  15.25 0.5 0  15.5 0.5 0  15.75 0.5 0  16 0.5 0  16.25 0.5 0  16.5 0.5 0  16.75 0.5 0  17 0.5 0  17.25 0.5 0  17.5 0.5 0  17.75 0.5 0  18 0.5 0  18.25 0.5 0  18.5 0.5 0  18.75 0.5 0  19 0.5 0  19.25 0.5 0  19.5 0.5 0  19.75 0.5 0  20 0.5 0  20.25 0.5 0  20.5 0.5 0  20.75 0.5 0  21 0.5 0  21.25 0.5 0  21.5 0.5 0  21.75 0.5 0  22 0.5 0  22.25 0.5 0  22.5 0.5 0  22.75 0.5 0  23 0.5 0  23.25 0.5 0  23.5 0.5 0  23.75 0.5 0  24 0.5 0  24.25 0.5 0  24.5 0.5 0  24.75 0.5 0  25 0.5 0  0 0.75 0  0.25 0.75 0  0.5 0.75 0  0.75 0.75 0  1 0.75 0  1.25 0.75 0  1.5 0.75 0  1.75 0.75 0  2 0.75 0  2.25 0.75 0  2.5 0.75 0  2.75 0.75 0  3 0.75 0  3.25 0.75 0  3.5 0.75 0  3.75 0.75 0  4 0.75 0  4.25 0.75 0  4.5 0.75 0  4.75 0.75 0  5 0.75 0  5.25 0.75 0  5.5 0.75 0  5.75 0.75 0  6 0.75 0  6.25 0.75 0  6.5 0.75 0  6.75 0.75 0  7 0.75 0  7.25 0.75 0  7.5 0.75 0  7.75 0.75 0  8 0.75 0  8.25 0.75 0  8.5 0.75 0  8.75 0.75 0  9 0.75 0  9.25 0.75 0  9.5 0.75 0  9.75 0.75 0  10 0.75 0  10.25 0.75 0  10.5 0.75 0  10.75 0.75 0  11 0.75 0  11.25 0.75 0  11.5 0.75 0  11.75 0.75 0  12 0.75 0  12.25 0.75 0  12.5 0.75 0  12.75 0.75 0  13 0.75 0  13.25 0.75 0  13.5 0.75 0  13.75 0.75 0  14 0.75 0  14.25 0.75 0  14.5 0.75 0  14.75 0.75 0  15 0.75 0  15.25 0.75 0  15.5 0.75 0  15.75 0.75 0  16 0.75 0  16.25 0.75 0  16.5 0.75 0  16.75 0.75 0  17 0.75 0  17.25 0.75 0  17.5 0.75 0  17.75 0.75 0  18 0.75 0  18.25 0.75 0  18.5 0.75 0  18.75 0.75 0  19 0.75 0  19.25 0.75 0  19.5 0.75 0  19.75 0.75 0  20 0.75 0  20.25 0.75 0  20.5 0.75 0  20.75 0.75 0  21 0.75 0  21.25 0.75 0  21.5 0.75 0  21.75 0.75 0  22 0.75 0  22.25 0.75 0  22.5 0.75 0  22.75 0.75 0  23 0.75 0  23.25 0.75 0  23.5 0.75 0  23.75 0.75 0  24 0.75 0  24.25 0.75 0  24.5 0.75 0  24.75 0.75 0  25 0.75 0  0 1 0  0.25 1 0  0.5 1 0  0.75 1 0  1 1 0  1.25 1 0  1.5 1 0  1.75 1 0  2 1 0  2.25 1 0  2.5 1 0  2.75 1 0  3 1 0  3.25 1 0  3.5 1 0  3.75 1 0  4 1 0  4.25 1 0  4.5 1 0  4.75 1 0  5 1 0  5.25 1 0  5.5 1 0  5.75 1 0  6 1 0  6.25 1 0  6.5 1 0  6.75 1 0  7 1 0  7.25 1 0  7.5 1 0  7.75 1 0  8 1 0  8.25 1 0  8.5 1 0  8.75 1 0  9 1 0  9.25 1 0  9.5 1 0  9.75 1 0  10 1 0  10.25 1 0  10.5 1 0  10.75 1 0  11 1 0  11.25 1 0  11.5 1 0  11.75 1 0  12 1 0  12.25 1 0  12.5 1 0  12.75 1 0  13 1 0  13.25 1 0  13.5 1 0  13.75 1 0  14 1 0  14.25 1 0  14.5 1 0  14.75 1 0  15 1 0  15.25 1 0  15.5 1 0  15.75 1 0  16 1 0  16.25 1 0  16.5 1 0  16.75 1 0  17 1 0  17.25 1 0  17.5 1 0  17.75 1 0  18 1 0  18.25 1 0  18.5 1 0  18.75 1 0  19 1 0  19.25 1 0  19.5 1 0  19.75 1 0  20 1 0  20.25 1 0  20.5 1 0  20.75 1 0  21 1 0  21.25 1 0  21.5 1 0  21.75 1 0  22 1 0  22.25 1 0  22.5 1 0  22.75 1 0  23 1 0  23.25 1 0  23.5 1 0  23.75 1 0  24 1 0  24.25 1 0  24.5 1 0  24.75 1 0  25 1 0  0 1.25 0  0.25 1.25 0  0.5 1.25 0  0.75 1.25 0  1 1.25 0  1.25 1.25 0  1.5 1.25 0  1.75 1.25 0  2 1.25 0  2.25 1.25 0  2.5 1.25 0  2.75 1.25 0  3 1.25 0  3.25 1.25 0  3.5 1.25 0  3.75 1.25 0  4 1.25 0  4.25 1.25 0  4.5 1.25 0  4.75 1.25 0  5 1.25 0  5.25 1.25 0  5.5 1.25 0  5.75 1.25 0  6 1.25 0  6.25 1.25 0  6.5 1.25 0  6.75 1.25 0  7 1.25 0  7.25 1.25 0  7.5 1.25 0  7.75 1.25 0  8 1.25 0  8.25 1.25 0  8.5 1.25 0  8.75 1.25 0  9 1.25 0  9.25 1.25 0  9.5 1.25 0  9.75 1.25 0  10 1.25 0  10.25 1.25 0  10.5 1.25 0  10.75 1.25 0  11 1.25 0  11.25 1.25 0  11.5 1.25 0  11.75 1.25 0  12 1.25 0  12.25 1.25 0  12.5 1.25 0  12.75 1.25 0  13 1.25 0  13.25 1.25 0  13.5 1.25 0  13.75 1.25 0  14 1.25 0  14.25 1.25 0  14.5 1.25 0  14.75 1.25 0  15 1.25 0  15.25 1.25 0  15.5 1.25 0  15.75 1.25 0  16 1.25 0  16.25 1.25 0  16.5 1.25 0  16.75 1.25 0  17 1.25 0  17.25 1.25 0  17.5 1.25 0  17.75 1.25 0  18 1.25 0  18.25 1.25 0  18.5 1.25 0  18.75 1.25 0  19 1.25 0  19.25 1.25 0  19.5 1.25 0  19.75 1.25 0  20 1.25 0  20.25 1.25 0  20.5 1.25 0  20.75 1.25 0  21 1.25 0  21.25 1.25 0  21.5 1.25 0  21.75 1.25 0  22 1.25 0  22.25 1.25 0  22.5 1.25 0  22.75 1.25 0  23 1.25 0  23.25 1.25 0  23.5 1.25 0  23.75 1.25 0  24 1.25 0  24.25 1.25 0  24.5 1.25 0  24.75 1.25 0  25 1.25 0  0 1.5 0  0.25 1.5 0  0.5 1.5 0  0.75 1.5 0  1 1.5 0  1.25 1.5 0  1.5 1.5 0  1.75 1.5 0  2 1.5 0  2.25 1.5 0  2.5 1.5 0  2.75 1.5 0  3 1.5 0  3.25 1.5 0  3.5 1.5 0  3.75 1.5 0  4 1.5 0  4.25 1.5 0  4.5 1.5 0  4.75 1.5 0  5 1.5 0  5.25 1.5 0  5.5 1.5 0  5.75 1.5 0  6 1.5 0  6.25 1.5 0  6.5 1.5 0  6.75 1.5 0  7 1.5 0  7.25 1.5 0  7.5 1.5 0  7.75 1.5 0  8 1.5 0  8.25 1.5 0  8.5 1.5 0  8.75 1.5 0  9 1.5 0  9.25 1.5 0  9.5 1.5 0  9.75 1.5 0  10 1.5 0  10.25 1.5 0  10.5 1.5 0  10.75 1.5 0  11 1.5 0  11.25 1.5 0  11.5 1.5 0  11.75 1.5 0  12 1.5 0  12.25 1.5 0  12.5 1.5 0  12.75 1.5 0  13 1.5 0  13.25 1.5 0  13.5 1.5 0  13.75 1.5 0  14 1.5 0  14.25 1.5 0  14.5 1.5 0  14.75 1.5 0  15 1.5 0  15.25 1.5 0  15.5 1.5 0  15.75 1.5 0  16 1.5 0  16.25 1.5 0  16.5 1.5 0  16.75 1.5 0  17 1.5 0  17.25 1.5 0  17.5 1.5 0  17.75 1.5 0  18 1.5 0  18.25 1.5 0  18.5 1.5 0  18.75 1.5 0  19 1.5 0  19.25 1.5 0  19.5 1.5 0  19.75 1.5 0  20 1.5 0  20.25 1.5 0  20.5 1.5 0  20.75 1.5 0  21 1.5 0  21.25 1.5 0  21.5 1.5 0  21.75 1.5 0  22 1.5 0  22.25 1.5 0  22.5 1.5 0  22.75 1.5 0  23 1.5 0  23.25 1.5 0  23.5 1.5 0  23.75 1.5 0  24 1.5 0  24.25 1.5 0  24.5 1.5 0  24.75 1.5 0  25 1.5 0  0 1.75 0  0.25 1.75 0  0.5 1.75 0  0.75 1.75 0  1 1.75 0  1.25 1.75 0  1.5 1.75 0  1.75 1.75 0  2 1.75 0  2.25 1.75 0  2.5 1.75 0  2.75 1.75 0  3 1.75 0  3.25 1.75 0  3.5 1.75 0  3.75 1.75 0  4 1.75 0  4.25 1.75 0  4.5 1.75 0  4.75 1.75 0  5 1.75 0  5.25 1.75 0  5.5 1.75 0  5.75 1.75 0  6 1.75 0  6.25 1.75 0  6.5 1.75 0  6.75 1.75 0  7 1.75 0  7.25 1.75 0  7.5 1.75 0  7.75 1.75 0  8 1.75 0  8.25 1.75 0  8.5 1.75 0  8.75 1.75 0  9 1.75 0  9.25 1.75 0  9.5 1.75 0  9.75 1.75 0  10 1.75 0  10.25 1.75 0  10.5 1.75 0  10.75 1.75 0  11 1.75 0  11.25 1.75 0  11.5 1.75 0  11.75 1.75 0  12 1.75 0  12.25 1.75 0  12.5 1.75 0  12.75 1.75 0  13 1.75 0  13.25 1.75 0  13.5 1.75 0  13.75 1.75 0  14 1.75 0  14.25 1.75 0  14.5 1.75 0  14.75 1.75 0  15 1.75 0  15.25 1.75 0  15.5 1.75 0  15.75 1.75 0  16 1.75 0  16.25 1.75 0  16.5 1.75 0  16.75 1.75 0  17 1.75 0  17.25 1.75 0  17.5 1.75 0  17.75 1.75 0  18 1.75 0  18.25 1.75 0  18.5 1.75 0  18.75 1.75 0  19 1.75 0  19.25 1.75 0  19.5 1.75 0  19.75 1.75 0  20 1.75 0  20.25 1.75 0  20.5 1.75 0  20.75 1.75 0  21 1.75 0  21.25 1.75 0  21.5 1.75 0  21.75 1.75 0  22 1.75 0  22.25 1.75 0  22.5 1.75 0  22.75 1.75 0  23 1.75 0  23.25 1.75 0  23.5 1.75 0  23.75 1.75 0  24 1.75 0  24.25 1.75 0  24.5 1.75 0  24.75 1.75 0  25 1.75 0  0 2 0  0.25 2 0  0.5 2 0  0.75 2 0  1 2 0  1.25 2 0  1.5 2 0  1.75 2 0  2 2 0  2.25 2 0  2.5 2 0  2.75 2 0  3 2 0  3.25 2 0  3.5 2 0  3.75 2 0  4 2 0  4.25 2 0  4.5 2 0  4.75 2 0  5 2 0  5.25 2 0  5.5 2 0  5.75 2 0  6 2 0  6.25 2 0  6.5 2 0  6.75 2 0  7 2 0  7.25 2 0  7.5 2 0  7.75 2 0  8 2 0  8.25 2 0  8.5 2 0  8.75 2 0  9 2 0  9.25 2 0  9.5 2 0  9.75 2 0  10 2 0  10.25 2 0  10.5 2 0  10.75 2 0  11 2 0  11.25 2 0 
[...]
<PointData  Scalars="f_23"> 
<DataArray  type="Float64"  Name="f_23"  format="ascii">-1.0616579137739590e-01  -1.0185994057786270e-01  -9.1431406137331112e-02  -7.4683891176118081e-02  -5.1764536906176606e-02  -2.2997090199081711e-02  1.1152399171208255e-02  5.0083493263527346e-02  9.3069944031303198e-02  1.3927746636075133e-01  1.8779309091090332e-01  2.3766488162942756e-01  2.8794808683095829e-01  3.3775209078675161e-01  3.8628217917808966e-01  4.3287115900647466e-01  4.7699790801955927e-01  5.1829233159200816e-01  5.5652832603894453e-01  5.9160774585232900e-01  6.2353891055371669e-01  6.5241298797892533e-01  6.7838092014910600e-01  7.0163269916938242e-01  7.2237997423638878e-01  7.4084230453262123e-01  7.5723691075939081e-01  7.7177150801197136e-01  7.8463968409181539e-01  7.9601827260640967e-01  8.0606621698712733e-01  8.1492449775806330e-01  8.2271677957941669e-01  8.2955051420221670e-01  8.3551830435943231e-01  8.4069938977980141e-01  8.4516116032326294e-01  8.4896063423887869e-01  8.5214586367337941e-01  8.5475724671663900e-01  8.5682873712978180e-01  8.5838895082688449e-01  8.5946217323536456e-01  8.6006927464376670e-01  8.6022854214813815e-01  8.5995643725778859e-01  8.5926828792831900e-01  8.5817892298060761e-01  8.5670325570568917e-01  8.5485682207074953e-01  8.5265627742127104e-01  8.5011985398157919e-01  8.4726777982898516e-01  8.4412265837168698e-01  8.4070980569556353e-01  8.3705754144605393e-01  8.3319742716245959e-01  8.2916444417873947e-01  8.2499710137067894e-01  8.2073746123334990e-01  8.1643107114620628e-01  8.1212678543040806e-01  8.0787646320431461e-01  8.0373452744413731e-01  7.9975737244188450e-01  7.9600261040034659e-01  7.9252815352496786e-01  7.8939113583059384e-01  7.8664668891668099e-01  7.8434659781640714e-01  7.8253787598070079e-01  7.8126131144550781e-01  7.8055004786908244e-01  7.8042827284721572e-01  7.8091009014977941e-01  7.8199865094214827e-01  7.8368561082346178e-01  7.8595096450996360e-01  7.8876328895148629e-01  7.9208040019678516e-01  7.9585040175353516e-01  8.0001307530504540e-01  8.0450154129668083e-01  8.0924409958545773e-01  8.1416615082477106e-01  8.1919209832168027e-01  8.2424713748056067e-01  8.2925885438596281e-01  8.3415857460127529e-01  8.3888242549405767e-01  8.4337209792261558e-01  8.4757531375392736e-01  8.5144602265656988e-01  8.5494436349397973e-01  8.5803643084452708e-01  8.6069388219711918e-01  8.6289339453054303e-01  8.6461588536607659e-01  8.6584506549937801e-01  8.6656344902693561e-01  8.6673743262572589e-01  -1.0283183906744806e-01  -9.9236518198739299e-02  -8.9019230280200104e-02  -7.2382042558679083e-02  -4.9561731983600213e-02  -2.0904157912165721e-02  1.3119045746246966e-02  5.1906946365218309e-02  9.4735072437918039e-02  1.4077229984670075e-01  1.8910971423565001e-01  2.3879988596502774e-01  2.8890258564967292e-01  3.3853134905494309e-01  3.8689495401075363e-01  4.3332887664263009e-01  4.7731379903174354e-01  5.1848062073794743e-01  5.5660353792270600e-01  5.9158415402715658e-01  6.2343013233397870e-01  6.5223171151314063e-01  6.7813874265574436e-01  7.0134005306992464e-01  7.2204611893321580e-01  7.4047536418028759e-01  7.5684394161697721e-01  7.7135858231373400e-01  7.8421198053997365e-01  7.9558016640667883e-01  8.0562136472518464e-01  8.1447591432130684e-01  8.2226690577541606e-01  8.2910127475762996e-01  8.3507115666477960e-01  8.4025536414837554e-01  8.4472089272802375e-01  8.4852439254454448e-01  8.5171356834788159e-01  8.5432848693203101e-01  8.5640278308267670e-01  8.5796476304813174e-01  8.5903840963503553e-01  8.5964429606020476e-01  8.5980041724174594e-01  8.5952294770829740e-01  8.5882693504979291e-01  8.5772693704735425e-01  8.5623760946536154e-01  8.5437425008416679e-01  8.5215330298342540e-01  8.4959282541318570e-01  8.4671291784940594e-01  8.4353611603968781e-01  8.4008774200615921e-01  8.3639620908043200e-01  8.3249327409804275e-01  8.2841422789077845e-01  8.2419801323091435e-01  8.1988725749590385e-01  8.1552820569150319e-01  8.1117053832142094e-01  8.0686705821641103e-01  8.0267323118359268e-01  7.9864656758084129e-01  7.9484583601342307e-01  7.9133010656010427e-01  7.8815762937757605e-01  7.8538456508670607e-01  7.8306359559284155e-01  7.8124245717160312e-01  7.7996245065126735e-01  7.7925699494237177e-01  7.7915029843734396e-01  7.7965622638358723e-01  7.8077743993938620e-01  7.8250487348291420e-01  7.8481760082121677e-01  7.8768311906240884e-01  7.9105805276092045e-01  7.9488925293006962e-01  7.9911523847103338e-01  8.0366790435720348e-01  8.0847440401243220e-01  8.1345910444422276e-01  8.1854551254597518e-01  8.2365807919488421e-01  8.2872380300253734e-01  8.3367357576903289e-01  8.3844323442583912e-01  8.4297430709512067e-01  8.4721446170193171e-01  8.5111768268764854e-01  8.5464421364873799e-01  8.5776031044830681e-01  8.6043785011530682e-01  8.6265383640224702e-01  8.6438984276003172e-01  8.6563150433379032e-01  8.6636871455656250e-01  8.6660049626017410e-01  -9.5242234871903184e-02  -9.1853119066649974e-02  -8.1848264891513450e-02  -6.5428684240716711e-02  -4.2857795102359660e-02  -1.4496842615700592e-02  1.9176300765705801e-02  5.7560340296821888e-02  9.9934788978041686e-02  1.4547611510582323e-01  1.9328595290971495e-01  2.4242952921803479e-01  2.9198031219064158e-01  3.4106541138295021e-01  3.8890596680596762e-01  4.3484775425184335e-01  4.7837917755922932e-01  5.1913612037024004e-01  5.5689517285513246e-01  5.9155810735384828e-01  6.2313101157308159e-01  6.5170131058631942e-01  6.7741527088258247e-01  7.0045775382807129e-01  7.2103518619534890e-01  7.3936206737170218e-01  7.5565088119521484e-01  7.7010501454936209e-01  7.8291416637202260e-01  7.9425171379664106e-01  8.0427354570790166e-01  8.1311794680652538e-01  8.2090619637851991e-01  8.2774362300386817e-01  8.3372092332384529e-01  8.3891560767703388e-01  8.4339347821350641e-01  8.4721007745529020e-01  8.5041206904159072e-01  8.5303852941250380e-01  8.5512214105522288e-01  8.5669028597794705e-01  8.5776604331257800e-01  8.5836909814654361e-01  8.5851657040934704e-01  8.5822377329577315e-01  8.5750491058420086e-01  8.5637372151120827e-01  8.5484408073956042e-01  8.5293055951020280e-01  8.5064895237288074e-01  8.4801677199309256e-01  8.4505371246540173e-01  8.4178207934246907e-01  8.3822718222853632e-01  8.3441768330400667e-01  8.3038589258068962e-01  8.2616799810398678e-01  8.2180421683384941e-01  8.1733884972362170e-01  8.1282022281136146e-01  8.0830049523932135e-01  8.0383531536858677e-01  7.9948330792289357e-01  7.9530537872557616e-01  7.9136382936419991e-01  7.8772128217699611e-01  7.8443942625802254e-01  7.8157760742264293e-01  7.7919129865569881e-01  7.7733050154886973e-01  7.7603814237958424e-01  7.7534853731410158e-01  7.7528600815498339e-01  7.7586373161794475e-01  7.7708290017045734e-01  7.7893226043122699e-01  7.8138807623762141e-01  7.8441453885314416e-01  7.8796461838947462e-01  7.9198132101464969e-01  7.9639928891374501e-01  8.0114665718643430e-01  8.0614706631719690e-01  8.1132172206908049e-01  8.1659139706459194e-01  8.2187827923751089e-01  8.2710759011435142e-01  8.3220891820492171e-01  8.3711723706533225e-01  8.4177360136763590e-01  8.4612553551126424e-01  8.5012714651830656e-01  8.5373900550870407e-01  8.5692785023261453e-01  8.5966616675493090e-01  8.6193171689638137e-01  8.6370710518259375e-01  8.6497956774317752e-01  8.6574140383470410e-01  8.6599180057774194e-01  -8.3020660699820351e-02  -7.9735516017289246e-02  -6.9945737299985419e-02  -5.3826435149005390e-02  -3.1642039216534676e-02  -3.7590198720371631e-03  2.9342303812334877e-02  6.7062848634292502e-02  1.0868954046578343e-01  1.5341144894305514e-01  2.0034743877284839e-01  2.4858345533515619e-01  2.9721555187059506e-01  3.4539342498502923e-01  3.9235900032532006e-01  4.3747557741776893e-01  4.8024489073015425e-01  5.2031161707894413e-01  5.5745678356595751e-01  5.9158281017101044e-01  6.2269342733963817e-01  6.5087154504517175e-01  6.7625755024745160e-01  6.9902972975086441e-01  7.1938775681874012e-01  7.3753956193619563e-01  7.5369147455009200e-01  7.6804126489140945e-01  7.8077359764692855e-01  7.9205738940291892e-01  8.0204460063709604e-01  8.1087006079173718e-01  8.1865200147016803e-01  8.2549304606180085e-01  8.3148146809436219e-01  8.3669258322350459e-01  8.4119018116763045e-01  8.4502793538582799e-01  8.4825075160062791e-01  8.5089603310843109e-01  8.5299485272172004e-01  8.5457302939632318e-01  8.5565211308490829e-01  8.5625028485160037e-01  8.5638318131100499e-01  8.5606465339422788e-01  8.5530746955777925e-01  8.5412397301953991e-01  8.5252670155129040e-01  8.5052897685909301e-01  8.4814546868978191e-01  8.4539273654145031e-01  8.4228974924371924e-01  8.3885837972430277e-01  8.3512386901881563e-01  8.3111525006603848e-01  8.2686571816167542e-01  8.2241293128282800e-01  8.1779922007998673e-01  8.1307168447856537e-01  8.0828215192341490e-01  8.0348697177089423e-01  7.9874662162824983e-01  7.9412510496418676e-01  7.8968912537426372e-01  7.8550703162692925e-01  7.8164753896964989e-01  7.7817824580280548e-01  7.7516398009657395e-01  7.7266502588815777e-01  7.7073529561676690e-01  7.6942052745843637e-01  7.6875659660431395e-01  7.6876803399799276e-01  7.6946684405019383e-01  7.7085170338779552e-01  7.7290760557268967e-01  7.7560599262577656e-01  7.7890538474083004e-01  7.8275248726156610e-01  7.8708372191910181e-01  7.9182710078866514e-01  7.9690433945344197e-01  8.0223309275069976e-01  8.0772919341958471e-01  8.1330878091241354e-01  8.1889022331061878e-01  8.2439575749553251e-01  8.2975279870424168e-01  8.3489489748645185e-01  8.3976234730570198e-01  8.4430246764339834e-01  8.4846960430903473e-01  8.5222490046322807e-01  8.5553589931631002e-01  8.5837604444515236e-01  8.6072414966486754e-01  8.6256392254061431e-01  8.6388364550011754e-01  8.6467611153142876e-01  8.6493867593165930e-01  -6.6028267423001635e-02  -6.2835997677608030e-02  -5.3292292272188457e-02  -3.7558326831681546e-02  -1.5895146579667892e-02  1.1330526545328803e-02  4.3639610107453916e-02  8.0438668709877328e-02  1.2102621899616990e-01  1.6460935608652713e-01  2.1033092228489764e-01  2.5730539988211881e-01  3.0465983591696033e-01  3.5157491195634222e-01  3.9732111922057778e-01  4.4128593184975284e-01  4.8298959249288936e-01  5.2208912651277872e-01  5.5837196557228741e-01  5.9174173347105707e-01  6.2219921137706913e-01  6.4982135037734057e-01  6.7474064899814368e-01  6.9712649427529494e-01  7.1716936176416601e-01  7.3506819327052331e-01  7.5102086295593984e-01  7.6521739659536026e-01  7.7783549364014237e-01  7.8903787838463690e-01  7.9897103921563106e-01  8.0776497588655305e-01  8.1553364500797676e-01  8.2237586200631885e-01  8.2837647777958812e-01  8.3360769797889600e-01  8.3813045226388816e-01  8.4199575113413427e-01  8.4524599057067862e-01  8.4791618130597279e-01  8.5003509147815670e-01  8.5162629986981209e-01  8.5270916277838782e-01  8.5329970148378476e-01  8.5341141974915691e-01  8.5305606214932816e-01  8.5224432449334886e-01  8.5098652733872571e-01  8.4929326267019267e-01  8.4717602227719979e-01  8.4464781422213198e-01  8.4172377103758189e-01  8.3842174991352725e-01  8.3476292113582651e-01  8.3077233645451598e-01  8.2647946399506289e-01  8.2191867096804994e-01  8.1712963008372341e-01  8.1215762066054686e-01  8.0705369147048833e-01  8.0187465001435909e-01  7.9668284282722945e-01  7.9154569419214671e-01  7.8653497677049444e-01  7.8172579739148140e-01  7.7719529452473357e-01  7.7302106036905061e-01  7.6927931922506820e-01  7.6604291371424282e-01  7.6337916998570399e-01  7.6134773061514216e-01  7.5999845763255369e-01  7.5936951623583071e-01  7.5948575068100554e-01  7.6035745643339281e-01  7.6197963641241151e-01  7.6433180442517856e-01  7.6737836702589191e-01  7.7106957844630730e-01  7.7534302516115139e-01  7.8012556082881690e-01  7.8533558252949542e-01  7.9088551859007961e-01  7.9668438893957738e-01  8.0264030156603727e-01  8.0866276242928392e-01  8.1466469898766558e-01  8.2056412627257480e-01  8.2628541575790582e-01  8.3176015783960233e-01  8.3692763586994146e-01  8.4173495155972133e-01  8.4613685732368327e-01  8.5009536089186843e-01  8.5357917212849188e-01  8.5656306292704687e-01  8.5902720971651947e-01  8.6095658421926058e-01  8.6234044437651769e-01  8.6317192716618540e-01  8.6344760080887095e-01  -4.4203494641847023e-02  -4.1116300305319674e-02  -3.1866785809598848e-02  -1.6610388836640618e-02  4.3945715482481308e-03  3.0783251684235746e-02  6.2080822142527213e-02  9.7703176517861215e-02  1.3696499553757768e-01  1.7909702766264662e-01  2.2327272847070984e-01  2.6864250297360981e-01  3.1437211422569522e-01  3.5968079772971556e-01  4.0387454643242865e-01  4.4637091749539187e-01  4.8671328181353452e-01  5.2457423722057317e-01  5.5974948200854846e-01  5.9214448881756399e-01  6.2175673153444555e-01  6.4865608370522521e-01  6.7296551345306077e-01  6.9484355236603146e-01  7.1446937880046313e-01  7.3203082955418963e-01  7.4771527719910058e-01  7.6170307971467066e-01  7.7416319743969164e-01  7.8525054536352190e-01  7.9510467435546117e-01  8.0384942782719437e-01  8.1159328300190059e-01  8.1843014764016153e-01  8.2444043805810607e-01  8.2969231031009039e-01  8.3424295330825771e-01  8.3813988130964590e-01  8.4142218495217935e-01  8.4412171625600141e-01  8.4626419497908090e-01  8.4787023245932602e-01  8.4895627539149510e-01  8.4953547646869898e-01  8.4961850188442256e-01  8.4921428762418283e-01  8.4833075745372066e-01  8.4697551563038664e-01  8.4515652666182872e-01  8.4288279289953261e-01  8.4016503833842537e-01  8.3701640363355578e-01  8.3345315297970679e-01  8.2949538810044188e-01  8.2516775819886767e-01  8.2050014748342603e-01  8.1552831410141047e-01  8.1029444648012106e-01  8.0484759587990018e-01  7.9924393827544915e-01  7.9354681549474149e-01  7.8782650587084169e-01  7.8215967939293884e-01  7.7662850209180234e-01  7.7131936934468570e-01  7.6632126757650421e-01  7.6172378751949421e-01  7.5761483826543585e-01  7.5407813784236555e-01  7.5119058071831901e-01  7.4901960312172877e-01  7.4762068110834767e-01  7.4703510191990730e-01  7.4728814486979378e-01  7.4838779293354840e-01  7.5032407047849037e-01  7.5306906726493061e-01  7.5657766628778400e-01  7.6078894661765029e-01  7.6562818641924790e-01  7.7100935042176821e-01  7.7683791466177676e-01  7.8301386270988227e-01  7.8943468366169156e-01  7.9599821287226280e-01  8.0260517983581969e-01  8.0916136037004627e-01  8.1557926810949655e-01  8.2177935886426268e-01  8.2769075680589732e-01  8.3325154085552600e-01  8.3840865145468790e-01  8.4311749170003480e-01  8.4734130322894075e-01  8.5105039752947076e-01  8.5422131899170950e-01  8.5683600801767046e-01  8.5888102025531410e-01  8.6034683764170883e-01  8.6122727097977758e-01  8.6151890216342464e-01  -1.7542534225731706e-02  -1.4579564989319047e-02  -5.6809187368574614e-03  9.0001513896420214e-03  2.9207462742579987e-02  5.4579619277358403e-02  8.4648952971704577e-02  1.1884459625841542e-01  1.5650221521398441e-01  1.9688187289204681e-01  2.3919397994849786e-01  2.8263162107707696e-01  3.2640610624333150e-01  3.6978176344416908e-01  4.1210599540537163e-01  4.5283145311707118e-01  4.9152858049919745e-01  5.2788836348400259e-01  5.6171648699490473e-01  5.9292100623166155e-01  6.2149599375510045e-01  6.4750350463914463e-01  6.7105576920224141e-01  6.9229895311641387e-01  7.1139926061083358e-01  7.2853168608429009e-01  7.4387137873303577e-01  7.5758737224199391e-01  7.6983832487925197e-01  7.8076988502398004e-01  7.9051331524782531e-01  7.9918505213192659e-01  8.0688693319784177e-01  8.1370687672597597e-01  8.1971984943535514e-01  8.2498899872486420e-01  8.2956686006573366e-01  8.3349657685625822e-01  8.3681309071011800e-01  8.3954427593936065e-01  8.4171200399454482e-01  8.4333313273156374e-01  8.4442042227602465e-01  8.4498338445260013e-01  8.4502907658169690e-01  8.4456285313609514e-01  8.4358909041319929e-01  8.4211190005143521e-01  8.4013584687334564e-01  8.3766668508944175e-01  8.3471212422034846e-01  8.3128263204186470e-01  8.2739227628692580e-01  8.2305959965921260e-01  8.1830851394226645e-01  8.1316918881783029e-01  8.0767889987415709e-01  8.0188278892473508e-01  7.9583447922699302e-01  7.8959647983568781e-01  7.8324030868222771e-01  7.7684626458732209e-01  7.7050278561300400e-01  7.6430534577226628e-01  7.5835486423579757e-01  7.5275563000270951e-01  7.4761277880090027e-01  7.4302939520258493e-01  7.3910334846633252e-01  7.3592400210228492e-01  7.3356896137416627e-01  7.3210103709797991e-01  7.3156560603350895e-01  7.3198853659153962e-01  7.3337482318875014e-01  7.3570803420744701e-01  7.3895062927612820e-01  7.4304514494860985e-01  7.4791618854453268e-01  7.5347312353379314e-01  7.5961328225781488e-01  7.6622550822293112e-01  7.7319381440308033e-01  7.8040094745273891e-01  7.8773166941403705e-01  7.9507560499631014e-01  8.0232954868198825e-01  8.0939917586219678e-01  8.1620015025268000e-01  8.2265866138448640e-01  8.2871145799837920e-01  8.3430546443096754e-01  8.3939707785068329e-01  8.4395124590745363e-01  8.4794041903519635e-01  8.5134346137584727e-01  8.5414459066736603e-01  8.5633240109479047e-01  8.5789900375771311e-01  8.5883929773023870e-01  8.5915036888951823e-01  1.3884508370231509e-02  1.6701992241567005e-02  2.5189576316819499e-02  3.9195247201702137e-02  5.8465470106077118e-02  8.2644334815095574e-02  1.1127461060132816e-01  1.4380291115355306e-01  1.7959088397570083e-01  2.1793345269833941e-01  2.5808385126883848e-01  2.9928378279848050e-01  3.4079585818192176e-01  3.8193483426128610e-01  4.2209425262672379e-01  4.6076584598761444e-01  4.9755030358375330e-01  5.3215933868591236e-01  5.6441016148174594e-01  5.9421422005352798e-01  6.2156236784933239e-01  6.4650851106433582e-01  6.6915341805139528e-01  6.8962988294570338e-01  7.0808994736076425e-01  7.2469447278535748e-01  7.3960505437887747e-01  7.5297807458855393e-01  7.6496059465562405e-01  7.7568774916776873e-01  7.8528131955265534e-01  7.9384919736979154e-01  8.0148549347431486e-01  8.0827109564755506e-01  8.1427452011359469e-01  8.1955293925041628e-01  8.2415329825628569e-01  8.2811345800215075e-01  8.3146332067055306e-01  8.3422591003020941e-01  8.3641839022118580e-01  8.3805301646632102e-01  8.3913801873931537e-01  8.3967842550215732e-01  8.3967683942772675e-01  8.3913418068678536e-01  8.3805041594751384e-01  8.3642529267461452e-01  8.3425909851436630e-01  8.3155346433460697e-01  8.2831222661967996e-01  8.2454236012947979e-01  8.2025498475246583e-01  8.1546644111525357e-01  8.1019941770996340e-01  8.0448409827801248e-01  7.9835928252885091e-01  7.9187341702103120e-01  7.8508545774385829e-01  7.7806547362718526e-01  7.7089489319673510e-01  7.6366629722645030e-01  7.5648267049382423e-01  7.4945604679105327e-01  7.4270551316117495e-01  7.3635458045538393e-01  7.3052797484643606e-01  7.2534795480874026e-01  7.2093030553000947e-01  7.1738020292047366e-01  7.1478816801571110e-01  7.1322634626789816e-01  7.1274534283456370e-01  7.1337182364652474e-01  7.1510705322727797e-01  7.1792648576685336e-01  7.2178045910534250e-01  7.2659596687172323e-01  7.3227940830787630e-01  7.3872014555272136e-01  7.4579464181434640e-01  7.5337091739854545e-01  7.6131304828797974e-01  7.6948544505243899e-01  7.7775668601017323e-01  7.8600273233249562e-01  7.9410941667981649e-01  8.0197416278907852e-01  8.0950695375959392e-01  8.1663061601827658e-01  8.2328052092877957e-01  8.2940382603311047e-01  8.3495838428638447e-01  8.3991144499774895e-01  8.4423825772484540e-01  8.4792067318965392e-01  8.5094581592303598e-01  8.5330488359175960e-01  8.5499210920196700e-01  8.5600390682084304e-01  8.5633821425032963e-01  4.9908158450465409e-02  5.2558954443847429e-02  6.0575377378659194e-02  7.3807132373938530e-02  9.2004918619824821e-02  1.1482109753441101e-01  1.4181269144969225e-01  1.7244837605871741e-01  2.0612084126073588e-01  2.4216513422668276e-01  2.7988252246226869e-01  3.1856827234164792e-01  3.5754081905509871e-01  3.9616935488148686e-01  4.3389700760683964e-01  4.7025747454697009e-01  5.0488402471690630e-01  5.3751091066595535e-01  5.6796818828477680e-01  5.9617156358323986e-01  6.22109