<?xml version="1.0"?>
<VTKFile type="UnstructuredGrid"  version="0.1"  >
<UnstructuredGrid>
<Piece  NumberOfPoints="10201" NumberOfCells="20000">
<Points>
<DataArray  type="Float64"  NumberOfComponents="3"  format="ascii">0 0 0  0.25 0 0  0.5 0 0  0.75 0 0  1 0 0  1.25 0 0  1.5 0 0  1.75 0 0  2 0 0  2.25 0 0  2.5 0 0  2.75 0 0  3 0 0  3.25 0 0  3.5 0 0  3.75 0 0  4 0 0  4.25 0 0  4.5 0 0  4.75 0 0  5 0 0  5.25 0 0  5.5 0 0  5.75 0 0  6 0 0  6.25 0 0  6.5 0 0  6.75 0 0  7 0 0  7.25 0 0  7.5 0 0  7.75 0 0  8 0 0  8.25 0 0  8.5 0 0  8.75 0 0  9 0 0  9.25 0 0  9.5 0 0  9.75 0 0  10 0 0  10.25 0 0  10.5 0 0  10.75 0 0  11 0 0  11.25 0 0  11.5 0 0  11.75 0 0  12 0 0  12.25 0 0  12.5 0 0  12.75 0 0  13 0 0  13.25 0 0  13.5 0 0  13.75 0 0  14 0 0  14.25 0 0  14.5 0 0  14.75 0 0  15 0 0  15.25 0 0  15.5 0 0  15.75 0 0  16 0 0  16.25 0 0  16.5 0 0  16.75 0 0  17 0 0  17.25 0 0  17.5 0 0  17.75 0 0  18 0 0  18.25 0 0  18.5 0 0  18.75 0 0  19 0 0  19.25 0 0  19.5 0 0  19.75 0 0  20 0 0  20.25 0 0  20.5 0 0  20.75 0 0  21 0 0  21.25 0 0  21.5 0 0  21.75 0 0  22 0 0  22.25 0 0  22.5 0 0  22.75 0 0  23 0 0  23.25 0 0  23.5 0 0  23.75 0 0  24 0 0  24.25 0 0  24.5 0 0  24.75 0 0  25 0 0  0 0.25 0  0.25 0.25 0  0.5 0.25 0  0.75 0.25 0  1 0.25 0  1.25 0.25 0  1.5 0.25 0  1.75 0.25 0  2 0.25 0  2.25 0.25 0  2.5 0.25 0  2.75 0.25 0  3 0.25 0  3.25 0.25 0  3.5 0.25 0  3.75 0.25 0  4 0.25 0  4.25 0.25 0  4.5 0.25 0  4.75 0.25 0  5 0.25 0  5.25 0.25 0  5.5 0.25 0  5.75 0.25 0  6 0.25 0  6.25 0.25 0  6.5 0.25 0  6.75 0.25 0  7 0.25 0  7.25 0.25 0  7.5 0.25 0  7.75 0.25 0  8 0.25 0  8.25 0.25 0  8.5 0.25 0  8.75 0.25 0  9 0.25 0  9.25 0.25 0  9.5 0.25 0  9.75 0.25 0  10 0.25 0  10.25 0.25 0  10.5 0.25 0  10.75 0.25 0  11 0.25 0  11.25 0.25 0  11.5 0.25 0  11.75 0.25 0  12 0.25 0  12.25 0.25 0  12.5 0.25 0  12.75 0.25 0  13 0.25 0  13.25 0.25 0  13.5 0.25 0  13.75 0.25 0  14 0.25 0  14.25 0.25 0  14.5 0.25 0  14.75 0.25 0  15 0.25 0  15.25 0.25 0  15.5 0.25 0  15.75 0.25 0  16 0.25 0  16.25 0.25 0  16.5 0.25 0  16.75 0.25 0  17 0.25 0  17.25 0.25 0  17.5 0.25 0  17.75 0.25 0  18 0.25 0  18.25 0.25 0  18.5 0.25 0  18.75 0.25 0  19 0.25 0  19.25 0.25 0  19.5 0.25 0  19.75 0.25 0  20 0.25 0  20.25 0.25 0  20.5 0.25 0  20.75 0.25 0  21 0.25 0  21.25 0.25 0  21.5 0.25 0  21.75 0.25 0  22 0.25 0  22.25 0.25 0  22.5 0.25 0  22.75 0.25 0  23 0.25 0  23.25 0.25 0  23.5 0.25 0  23.75 0.25 0  24 0.25 0  24.25 0.25 0  24.5 0.25 0  24.75 0.25 0  25 0.25 0  0 0.5 0  0.25 0.5 0  0.5 0.5 0  0.75 0.5 0  1 0.5 0  1.25 0.5 0  1.5 0.5 0  1.75 0.5 0  2 0.5 0  2.25 0.5 0  2.5 0.5 0  2.75 0.5 0  3 0.5 0  3.25 0.5 0  3.5 0.5 0  3.75 0.5 0  4 0.5 0  4.25 0.5 0  4.5 0.5 0  4.75 0.5 0  5 0.5 0  5.25 0.5 0  5.5 0.5 0  5.75 0.5 0  6 0.5 0  6.25 0.5 0  6.5 0.5 0  6.75 0.5 0  7 0.5 0  7.25 0.5 0  7.5 0.5 0  7.75 0.5 0  8 0.5 0  8.25 0.5 0  8.5 0.5 0  8.75 0.5 0  9 0.5 0  9.25 0.5 0  9.5 0.5 0  9.75 0.5 0  10 0.5 0  10.25 0.5 0  10.5 0.5 0  10.75 0.5 0  11 0.5 0  11.25 0.5 0  11.5 0.5 0  11.75 0.5 0  12 0.5 0  12.25 0.5 0  12.5 0.5 0  12.75 0.5 0  13 0.5 0  13.25 0.5 0  13.5 0.5 0  13.75 0.5 0  14 0.5 0  14.25 0.5 0  14.5 0.5 0  14.75 0.5 0  15 0.5 0  15.25 0.5 0  15.5 0.5 0  15.75 0.5 0  16 0.5 0  16.25 0.5 0  16.5 0.5 0  16.75 0.5 0  17 0.5 0  17.25 0.5 0  17.5 0.5 0  17.75 0.5 0  18 0.5 0  18.25 0.5 0  18.5 0.5 0  18.75 0.5 0  19 0.5 0  19.25 0.5 0  19.5 0.5 0  19.75 0.5 0  20 0.5 0  20.25 0.5 0  20.5 0.5 0  20.75 0.5 0  21 0.5 0  21.25 0.5 0  21.5 0.5 0  21.75 0.5 0  22 0.5 0  22.25 0.5 0  22.5 0.5 0  22.75 0.5 0  23 0.5 0  23.25 0.5 0  23.5 0.5 0  23.75 0.5 0  24 0.5 0  24.25 0.5 0  24.5 0.5 0  24.75 0.5 0  25 0.5 0  0 0.75 0  0.25 0.75 0  0.5 0.75 0  0.75 0.75 0  1 0.75 0  1.25 0.75 0  1.5 0.75 0  1.75 0.75 0  2 0.75 0  2.25 0.75 0  2.5 0.75 0  2.75 0.75 0  3 0.75 0  3.25 0.75 0  3.5 0.75 0  3.75 0.75 0  4 0.75 0  4.25 0.75 0  4.5 0.75 0  4.75 0.75 0  5 0.75 0  5.25 0.75 0  5.5 0.75 0  5.75 0.75 0  6 0.75 0  6.25 0.75 0  6.5 0.75 0  6.75 0.75 0  7 0.75 0  7.25 0.75 0  7.5 0.75 0  7.75 0.75 0  8 0.75 0  8.25 0.75 0  8.5 0.75 0  8.75 0.75 0  9 0.75 0  9.25 0.75 0  9.5 0.75 0  9.75 0.75 0  10 0.75 0  10.25 0.75 0  10.5 0.75 0  10.75 0.75 0  11 0.75 0  11.25 0.75 0  11.5 0.75 0  11.75 0.75 0  12 0.75 0  12.25 0.75 0  12.5 0.75 0  12.75 0.75 0  13 0.75 0  13.25 0.75 0  13.5 0.75 0  13.75 0.75 0  14 0.75 0  14.25 0.75 0  14.5 0.75 0  14.75 0.75 0  15 0.75 0  15.25 0.75 0  15.5 0.75 0  15.75 0.75 0  16 0.75 0  16.25 0.75 0  16.5 0.75 0  16.75 0.75 0  17 0.75 0  17.25 0.75 0  17.5 0.75 0  17.75 0.75 0  18 0.75 0  18.25 0.75 0  18.5 0.75 0  18.75 0.75 0  19 0.75 0  19.25 0.75 0  19.5 0.75 0  19.75 0.75 0  20 0.75 0  20.25 0.75 0  20.5 0.75 0  20.75 0.75 0  21 0.75 0  21.25 0.75 0  21.5 0.75 0  21.75 0.75 0  22 0.75 0  22.25 0.75 0  22.5 0.75 0  22.75 0.75 0  23 0.75 0  23.25 0.75 0  23.5 0.75 0  23.75 0.75 0  24 0.75 0  24.25 0.75 0  24.5 0.75 0  24.75 0.75 0  25 0.75 0  0 1 0  0.25 1 0  0.5 1 0  0.75 1 0  1 1 0  1.25 1 0  1.5 1 0  1.75 1 0  2 1 0  2.25 1 0  2.5 1 0  2.75 1 0  3 1 0  3.25 1 0  3.5 1 0  3.75 1 0  4 1 0  4.25 1 0  4.5 1 0  4.75 1 0  5 1 0  5.25 1 0  5.5 1 0  5.75 1 0  6 1 0  6.25 1 0  6.5 1 0  6.75 1 0  7 1 0  7.25 1 0  7.5 1 0  7.75 1 0  8 1 0  8.25 1 0  8.5 1 0  8.75 1 0  9 1 0  9.25 1 0  9.5 1 0  9.75 1 0  10 1 0  10.25 1 0  10.5 1 0  10.75 1 0  11 1 0  11.25 1 0  11.5 1 0  11.75 1 0  12 1 0  12.25 1 0  12.5 1 0  12.75 1 0  13 1 0  13.25 1 0  13.5 1 0  13.75 1 0  14 1 0  14.25 1 0  14.5 1 0  14.75 1 0  15 1 0  15.25 1 0  15.5 1 0  15.75 1 0  16 1 0  16.25 1 0  16.5 1 0  16.75 1 0  17 1 0  17.25 1 0  17.5 1 0  17.75 1 0  18 1 0  18.25 1 0  18.5 1 0  18.75 1 0  19 1 0  19.25 1 0  19.5 1 0  19.75 1 0  20 1 0  20.25 1 0  20.5 1 0  20.75 1 0  21 1 0  21.25 1 0  21.5 1 0  21.75 1 0  22 1 0  22.25 1 0  22.5 1 0  22.75 1 0  23 1 0  23.25 1 0  23.5 1 0  23.75 1 0  24 1 0  24.25 1 0  24.5 1 0  24.75 1 0  25 1 0  0 1.25 0  0.25 1.25 0  0.5 1.25 0  0.75 1.25 0  1 1.25 0  1.25 1.25 0  1.5 1.25 0  1.75 1.25 0  2 1.25 0  2.25 1.25 0  2.5 1.25 0  2.75 1.25 0  3 1.25 0  3.25 1.25 0  3.5 1.25 0  3.75 1.25 0  4 1.25 0  4.25 1.25 0  4.5 1.25 0  4.75 1.25 0  5 1.25 0  5.25 1.25 0  5.5 1.25 0  5.75 1.25 0  6 1.25 0  6.25 1.25 0  6.5 1.25 0  6.75 1.25 0  7 1.25 0  7.25 1.25 0  7.5 1.25 0  7.75 1.25 0  8 1.25 0  8.25 1.25 0  8.5 1.25 0  8.75 1.25 0  9 1.25 0  9.25 1.25 0  9.5 1.25 0  9.75 1.25 0  10 1.25 0  10.25 1.25 0  10.5 1.25 0  10.75 1.25 0  11 1.25 0  11.25 1.25 0  11.5 1.25 0  11.75 1.25 0  12 1.25 0  12.25 1.25 0  12.5 1.25 0  12.75 1.25 0  13 1.25 0  13.25 1.25 0  13.5 1.25 0  13.75 1.25 0  14 1.25 0  14.25 1.25 0  14.5 1.25 0  14.75 1.25 0  15 1.25 0  15.25 1.25 0  15.5 1.25 0  15.75 1.25 0  16 1.25 0  16.25 1.25 0  16.5 1.25 0  16.75 1.25 0  17 1.25 0  17.25 1.25 0  17.5 1.25 0  17.75 1.25 0  18 1.25 0  18.25 1.25 0  18.5 1.25 0  18.75 1.25 0  19 1.25 0  19.25 1.25 0  19.5 1.25 0  19.75 1.25 0  20 1.25 0  20.25 1.25 0  20.5 1.25 0  20.75 1.25 0  21 1.25 0  21.25 1.25 0  21.5 1.25 0  21.75 1.25 0  22 1.25 0  22.25 1.25 0  22.5 1.25 0  22.75 1.25 0  23 1.25 0  23.25 1.25 0  23.5 1.25 0  23.75 1.25 0  24 1.25 0  24.25 1.25 0  24.5 1.25 0  24.75 1.25 0  25 1.25 0  0 1.5 0  0.25 1.5 0  0.5 1.5 0  0.75 1.5 0  1 1.5 0  1.25 1.5 0  1.5 1.5 0  1.75 1.5 0  2 1.5 0  2.25 1.5 0  2.5 1.5 0  2.75 1.5 0  3 1.5 0  3.25 1.5 0  3.5 1.5 0  3.75 1.5 0  4 1.5 0  4.25 1.5 0  4.5 1.5 0  4.75 1.5 0  5 1.5 0  5.25 1.5 0  5.5 1.5 0  5.75 1.5 0  6 1.5 0  6.25 1.5 0  6.5 1.5 0  6.75 1.5 0  7 1.5 0  7.25 1.5 0  7.5 1.5 0  7.75 1.5 0  8 1.5 0  8.25 1.5 0  8.5 1.5 0  8.75 1.5 0  9 1.5 0  9.25 1.5 0  9.5 1.5 0  9.75 1.5 0  10 1.5 0  10.25 1.5 0  10.5 1.5 0  10.75 1.5 0  11 1.5 0  11.25 1.5 0  11.5 1.5 0  11.75 1.5 0  12 1.5 0  12.25 1.5 0  12.5 1.5 0  12.75 1.5 0  13 1.5 0  13.25 1.5 0  13.5 1.5 0  13.75 1.5 0  14 1.5 0  14.25 1.5 0  14.5 1.5 0  14.75 1.5 0  15 1.5 0  15.25 1.5 0  15.5 1.5 0  15.75 1.5 0  16 1.5 0  16.25 1.5 0  16.5 1.5 0  16.75 1.5 0  17 1.5 0  17.25 1.5 0  17.5 1.5 0  17.75 1.5 0  18 1.5 0  18.25 1.5 0  18.5 1.5 0  18.75 1.5 0  19 1.5 0  19.25 1.5 0  19.5 1.5 0  19.75 1.5 0  20 1.5 0  20.25 1.5 0  20.5 1.5 0  20.75 1.5 0  21 1.5 0  21.25 1.5 0  21.5 1.5 0  21.75 1.5 0  22 1.5 0  22.25 1.5 0  22.5 1.5 0  22.75 1.5 0  23 1.5 0  23.25 1.5 0  23.5 1.5 0  23.75 1.5 0  24 1.5 0  24.25 1.5 0  24.5 1.5 0  24.75 1.5 0  25 1.5 0  0 1.75 0  0.25 1.75 0  0.5 1.75 0  0.75 1.75 0  1 1.75 0  1.25 1.75 0  1.5 1.75 0  1.75 1.75 0  2 1.75 0  2.25 1.75 0  2.5 1.75 0  2.75 1.75 0  3 1.75 0  3.25 1.75 0  3.5 1.75 0  3.75 1.75 0  4 1.75 0  4.25 1.75 0  4.5 1.75 0  4.75 1.75 0  5 1.75 0  5.25 1.75 0  5.5 1.75 0  5.75 1.75 0  6 1.75 0  6.25 1.75 0  6.5 1.75 0  6.75 1.75 0  7 1.75 0  7.25 1.75 0  7.5 1.75 0  7.75 1.75 0  8 1.75 0  8.25 1.75 0  8.5 1.75 0  8.75 1.75 0  9 1.75 0  9.25 1.75 0  9.5 1.75 0  9.75 1.75 0  10 1.75 0  10.25 1.75 0  10.5 1.75 0  10.75 1.75 0  11 1.75 0  11.25 1.75 0  11.5 1.75 0  11.75 1.75 0  12 1.75 0  12.25 1.75 0  12.5 1.75 0  12.75 1.75 0  13 1.75 0  13.25 1.75 0  13.5 1.75 0  13.75 1.75 0  14 1.75 0  14.25 1.75 0  14.5 1.75 0  14.75 1.75 0  15 1.75 0  15.25 1.75 0  15.5 1.75 0  15.75 1.75 0  16 1.75 0  16.25 1.75 0  16.5 1.75 0  16.75 1.75 0  17 1.75 0  17.25 1.75 0  17.5 1.75 0  17.75 1.75 0  18 1.75 0  18.25 1.75 0  18.5 1.75 0  18.75 1.75 0  19 1.75 0  19.25 1.75 0  19.5 1.75 0  19.75 1.75 0  20 1.75 0  20.25 1.75 0  20.5 1.75 0  20.75 1.75 0  21 1.75 0  21.25 1.75 0  21.5 1.75 0  21.75 1.75 0  22 1.75 0  22.25 1.75 0  22.5 1.75 0  22.75 1.75 0  23 1.75 0  23.25 1.75 0  23.5 1.75 0  23.75 1.75 0  24 1.75 0  24.25 1.75 0  24.5 1.75 0  24.75 1.75 0  25 1.75 0  0 2 0  0.25 2 0  0.5 2 0  0.75 2 0  1 2 0  1.25 2 0  1.5 2 0  1.75 2 0  2 2 0  2.25 2 0  2.5 2 0  2.75 2 0  3 2 0  3.25 2 0  3.5 2 0  3.75 2 0  4 2 0  4.25 2 0  4.5 2 0  4.75 2 0  5 2 0  5.25 2 0  5.5 2 0  5.75 2 0  6 2 0  6.25 2 0  6.5 2 0  6.75 2 0  7 2 0  7.25 2 0  7.5 2 0  7.75 2 0  8 2 0  8.25 2 0  8.5 2 0  8.75 2 0  9 2 0  9.25 2 0  9.5 2 0  9.75 2 0  10 2 0  10.25 2 0  10.5 2 0  10.75 2 0  11 2 0  11.25 2 0 
[...]
<PointData  Scalars="f_23"> 
<DataArray  type="Float64"  Name="f_23"  format="ascii">4.5636625949095648e-03  4.9911854205942092e-03  5.9674928761726930e-03  7.2404976998375588e-03  8.5191540067249029e-03  9.5962789295135284e-03  1.0400861647536796e-02  1.0991302802659798e-02  1.1525383954495698e-02  1.2217506034625522e-02  1.3256025651250605e-02  1.4678242714431787e-02  1.6274547181250616e-02  1.7605918275203542e-02  1.8158397443469084e-02  1.7552959375384109e-02  1.5663240687114409e-02  1.2572856378223083e-02  8.4578897416909878e-03  3.5349956268432960e-03  -1.8883933721456853e-03  -7.3729082493407304e-03  -1.2426673019821699e-02  -1.6676353723071424e-02  -1.9999133914589223e-02  -2.2512628092467180e-02  -2.4427737851160425e-02  -2.5856206884214167e-02  -2.6699245535518331e-02  -2.6690836620302489e-02  -2.5556954808962484e-02  -2.3194770069013420e-02  -1.9770011464123254e-02  -1.5667142494896730e-02  -1.1336813662809586e-02  -7.1556093104445688e-03  -3.3702622934622243e-03  -1.1245240149278620e-04  2.5516969697109561e-03  4.5596477471452563e-03  5.8139770107161213e-03  6.2000493331589596e-03  5.6444341504679422e-03  4.1547531455659696e-03  1.8099512550472415e-03  -1.2503170238473116e-03  -4.7850105904190393e-03  -8.3962168504392014e-03  -1.1561429866870336e-02  -1.3796686026901957e-02  -1.4850340442705005e-02  -1.4775981049927550e-02  -1.3847820183821965e-02  -1.2400426001580100e-02  -1.0692853410844702e-02  -8.8706976887925754e-03  -7.0437996425701246e-03  -5.3927533372470230e-03  -4.1771461668217410e-03  -3.6378038801190620e-03  -3.9104238608287777e-03  -5.0219007925183376e-03  -6.9153459313974356e-03  -9.4387570013871776e-03  -1.2313975907334442e-02  -1.5156516369659999e-02  -1.7556406604188994e-02  -1.9149061064508976e-02  -1.9646402860860650e-02  -1.8867446418156814e-02  -1.6796437131158561e-02  -1.3633260862395923e-02  -9.7731561201235204e-03  -5.6980678163790618e-03  -1.8405361726647716e-03  1.4871316107720979e-03  4.0685576708280264e-03  5.7177876849114030e-03  6.2665895384297621e-03  5.6607067548939509e-03  4.1011875550293420e-03  2.0702675024572804e-03  1.7568689648097313e-04  -1.0534603186724771e-03  -1.2593088496035908e-03  -2.6369780844634244e-04  1.8975313811842262e-03  4.9448130417466497e-03  8.4269800966022979e-03  1.1844304901099032e-02  1.4700223262891842e-02  1.6512184030407020e-02  1.6908713294103463e-02  1.5796377492671460e-02  1.3434623349617571e-02  1.0330872504313653e-02  7.0413887518202527e-03  4.0259240285321091e-03  1.6251017160959318e-03  1.0618446685932783e-04  -3.1148679398001664e-04  4.6743568742027399e-03  5.0512006921228873e-03  6.0194075529845575e-03  7.3064659946263993e-03  8.6139158306148544e-03  9.7266394253123587e-03  1.0566286678019118e-02  1.1185322974709795e-02  1.1732480759731637e-02  1.2407921664808915e-02  1.3389288942946739e-02  1.4716807097926535e-02  1.6197424897119592e-02  1.7415114769727034e-02  1.7875972792163589e-02  1.7211590612640104e-02  1.5298116744161032e-02  1.2218318742775968e-02  8.1444518161266580e-03  3.2814772290934639e-03  -2.0827705824860402e-03  -7.5234253135163572e-03  -1.2543799508177769e-02  -1.6747370217304821e-02  -1.9986806409730027e-02  -2.2373099386666758e-02  -2.4135475249218854e-02  -2.5420913051058855e-02  -2.6164206368675339e-02  -2.6116277196326112e-02  -2.5001844478774394e-02  -2.2703098957335695e-02  -1.9364167787417980e-02  -1.5350945125424346e-02  -1.1104414166027027e-02  -6.9996117335443192e-03  -3.2853368557158214e-03  -9.3921291831568362e-05  2.5139419832879675e-03  4.4877128833291603e-03  5.7420679947979289e-03  6.1671064089484319e-03  5.6837315388189227e-03  4.2869388791622956e-03  2.0428396021570858e-03  -9.1858291366794125e-04  -4.3647164755512037e-03  -7.9072422773557183e-03  -1.1032067747861824e-02  -1.3256586951743785e-02  -1.4323130193452618e-02  -1.4278639296303901e-02  -1.3394635955210041e-02  -1.2007324672701667e-02  -1.0380739490662745e-02  -8.6638209081485052e-03  -6.9604274585467543e-03  -5.4356015532477202e-03  -4.3320696908097055e-03  -3.8767117891863783e-03  -4.1916228108274519e-03  -5.2925670322128112e-03  -7.1225186795901320e-03  -9.5453267876300374e-03  -1.2309071313997352e-02  -1.5050861830963011e-02  -1.7369849265292930e-02  -1.8904620156638907e-02  -1.9371511367519960e-02  -1.8593044923184979e-02  -1.6549164568046035e-02  -1.3426809624685924e-02  -9.6074055133848306e-03  -5.5670147976420925e-03  -1.7420672426736148e-03  1.5462418866019800e-03  4.0752570455658233e-03  5.6634507674476206e-03  6.1583863599169765e-03  5.5205293418437839e-03  3.9516325288207060e-03  1.9234018527412246e-03  3.3534856443575152e-05  -1.1958142099862113e-03  -1.4148368792818982e-03  -4.4937149812377070e-04  1.6735248982342303e-03  4.6891100834982975e-03  8.1509250935482523e-03  1.1553921322809375e-02  1.4402173883348343e-02  1.6225297403185072e-02  1.6662922850137186e-02  1.5620481815512788e-02  1.3345805604272731e-02  1.0332416912694877e-02  7.1255326422827022e-03  4.1761887339735806e-03  1.8152310337036393e-03  2.9426834368283868e-04  -2.1669035636509061e-04  4.8958237484680910e-03  5.2601387440528516e-03  6.2255462173248458e-03  7.5314539195589858e-03  8.8839226699841765e-03  1.0063983824506406e-02  1.0981993448895278e-02  1.1674382575157341e-02  1.2266081855257210e-02  1.2922987499363577e-02  1.3791092954406068e-02  1.4902614589000752e-02  1.6087810130799216e-02  1.6978684441679548e-02  1.7140232599965576e-02  1.6255244821056083e-02  1.4229276054237475e-02  1.1149465073382559e-02  7.1703617913231226e-03  2.4613675756596292e-03  -2.7339149300002132e-03  -8.0216359129173381e-03  -1.2899904210927777e-02  -1.6930833615464814e-02  -1.9919254342957712e-02  -2.1961113328168271e-02  -2.3322461323954727e-02  -2.4225534447025864e-02  -2.4682666522084160e-02  -2.4491040698911073e-02  -2.3382282825210512e-02  -2.1215495386271443e-02  -1.8093268406346501e-02  -1.4335113570644353e-02  -1.0345114660006037e-02  -6.4791065097663464e-03  -2.9818527128540762e-03  1.5199983452078245e-05  2.4625473353981162e-03  4.3344323899990149e-03  5.5719327851774646e-03  6.0779571149465238e-03  5.7661153595262877e-03  4.6061508658560421e-03  2.6301040290690057e-03  -6.3760551526062029e-05  -3.2666551300934189e-03  -6.6076060285595942e-03  -9.5870787798541576e-03  -1.1733447326563756e-02  -1.2792373053539320e-02  -1.2807076502484679e-02  -1.2042520909412007e-02  -1.0829312968016421e-02  -9.4296836940702504e-03  -7.9915210268082845e-03  -6.6083446196021035e-03  -5.4194826677370581e-03  -4.6304823648707812e-03  -4.4246806783973100e-03  -4.8789092225531901e-03  -5.9767828321734611e-03  -7.6618675704089294e-03  -9.8362006973029773e-03  -1.2309068344156340e-02  -1.4773877487913390e-02  -1.6861328494720332e-02  -1.8222266361952271e-02  -1.8581722426306204e-02  -1.7770920787446180e-02  -1.5768164358181805e-02  -1.2741058079386823e-02  -9.0420263947130902e-03  -5.1251954166086841e-03  -1.4223235043400876e-03  1.7345996986629024e-03  4.1080518476743150e-03  5.5169850410570270e-03  5.8381657055058475e-03  5.0761466630322187e-03  3.4588260173597225e-03  1.4488749967441882e-03  -3.8896348536987492e-04  -1.5700784869997068e-03  -1.7756762073799690e-03  -8.4606030505923865e-04  1.2020622201562631e-03  4.1303925301396389e-03  7.5114435520504666e-03  1.0842129055094893e-02  1.3629779573892086e-02  1.5427046374771694e-02  1.5907447400361589e-02  1.4997288941291070e-02  1.2936976721379286e-02  1.0186146428466110e-02  7.2442245884241831e-03  4.5204427447936143e-03  2.3166729777915032e-03  8.7113971281795239e-04  3.5790416905195330e-04  5.3568282042567254e-03  5.7011210469972195e-03  6.6345480271411380e-03  7.9179048131318968e-03  9.2784584932075354e-03  1.0509378515534788e-02  1.1516503718556479e-02  1.2312939114772693e-02  1.2982119726634263e-02  1.3634617687656187e-02  1.4364388479033669e-02  1.5181547637769422e-02  1.5940048258476527e-02  1.6339330873034779e-02  1.6036718275524126e-02  1.4799630384288952e-02  1.2583321198865946e-02  9.4843811104214984e-03  5.6349608460275489e-03  1.1598656671260887e-03  -3.7527263357171061e-03  -8.7544990734936823e-03  -1.3353098429302268e-02  -1.7075934214406809e-02  -1.9674617271820800e-02  -2.1219544395533259e-02  -2.2011463325397034e-02  -2.2363059715076475e-02  -2.2393284658667866e-02  -2.1974548847639407e-02  -2.0859841554577725e-02  -1.8881618329171689e-02  -1.6083841701144630e-02  -1.2715058362619120e-02  -9.1188979447412721e-03  -5.6171383827202147e-03  -2.4449724477566869e-03  2.6737080224075029e-04  2.4817220508866686e-03  4.2006431616022589e-03  5.3984931794881282e-03  5.9962097003296846e-03  5.9004808831068546e-03  5.0531340405359634e-03  3.4480272671293492e-03  1.1450930978273803e-03  -1.6828557837412987e-03  -4.7000400284074439e-03  -7.4398514255318588e-03  -9.4551446601328602e-03  -1.0499671144194304e-02  -1.0606611672290604e-02  -1.0021011311072728e-02  -9.0562520823120034e-03  -7.9683147882644960e-03  -6.9057728893984023e-03  -5.9531569640440549e-03  -5.2180817749446365e-03  -4.8542510150222555e-03  -4.9824003456962317e-03  -5.6166248093637199e-03  -6.6987653090432656e-03  -8.1770486477622719e-03  -1.0008772388354395e-02  -1.2085829912393146e-02  -1.4176302561957394e-02  -1.5953158966695524e-02  -1.7081816206498426e-02  -1.7295974247294961e-02  -1.6439585404285004e-02  -1.4496842186842737e-02  -1.1619725603904717e-02  -8.1251591054661270e-03  -4.4318286214415767e-03  -9.5600607873761335e-04  1.9637303580338238e-03  4.0766052089135172e-03  5.2075688296288345e-03  5.2769978060049332e-03  4.3543587496364779e-03  2.7073038155252761e-03  7.8291675640148066e-04  -9.1155085465302837e-04  -1.9569622008288215e-03  -2.0863555270498138e-03  -1.1684033520316867e-03  7.8256118687247851e-04  3.5564351314751243e-03  6.7575959618999147e-03  9.9020739728407289e-03  1.2516548294638524e-02  1.4196305776653591e-02  1.4673417761195819e-02  1.3914417881635163e-02  1.2154942438995340e-02  9.8037383903687436e-03  7.2851201535498464e-03  4.9377452729144292e-03  3.0146340444203775e-03  1.7305139757695543e-03  1.2593011085970456e-03  6.1609216906517135e-03  6.4640205667577007e-03  7.3114404471756808e-03  8.4920020202959943e-03  9.7707055267636875e-03  1.0975324289496026e-02  1.2026052493426481e-02  1.2917318137316759e-02  1.3680062985043819e-02  1.4350847977193370e-02  1.4951498230740099e-02  1.5452238991363146e-02  1.5722788712726282e-02  1.5539019713785913e-02  1.4674802061861326e-02  1.3008548915666586e-02  1.0559827317906376e-02  7.4367869771839647e-03  3.7481799712954689e-03  -4.2429990657324795e-04  -4.9464590695629260e-03  -9.5226073332464224e-03  -1.3690807892591583e-02  -1.6970150475246526e-02  -1.9074998396133677e-02  -2.0046909628015315e-02  -2.0205040965156188e-02  -1.9939826005551789e-02  -1.9480508254992233e-02  -1.8792279459594365e-02  -1.7666193777789534e-02  -1.5912526391551926e-02  -1.3508593496450743e-02  -1.0616418062203724e-02  -7.5018421487996678e-03  -4.4397570137942695e-03  -1.6503044577881028e-03  7.3643291160137877e-04  2.6876764227524220e-03  4.2274027866114660e-03  5.3597270393898853e-03  6.0239919439866616e-03  6.1225177837875714e-03  5.5757500095805603e-03  4.3506933337434895e-03  2.4790966054276417e-03  9.6571887955238398e-05  -2.5148475548303520e-03  -4.9487643715118608e-03  -6.8017841392394758e-03  -7.8380328304451848e-03  -8.0673009650079567e-03  -7.6935395539500552e-03  -6.9961554432861972e-03  -6.2217693187812534e-03  -5.5288475954619349e-03  -5.0039303906524750e-03  -4.7250134848334869e-03  -4.7861764951229327e-03  -5.2364451640049218e-03  -6.0241707741378065e-03  -7.0527766146348163e-03  -8.2829724309920801e-03  -9.7376256459780694e-03  -1.1398370489490776e-02  -1.3108436448619408e-02  -1.4579035414805654e-02  -1.5484074569097943e-02  -1.5561214978573426e-02  -1.4669001250681598e-02  -1.2807636455058046e-02  -1.0126513390898728e-02  -6.9140963944255372e-03  -3.5493973706658341e-03  -4.2124226800463541e-04  2.1397119800225530e-03  3.8850655187539539e-03  4.6612065832106414e-03  4.4452834537115479e-03  3.3804917862177929e-03  1.7743425595189168e-03  4.5099075355720507e-05  -1.3809922360122934e-03  -2.1739614617209213e-03  -2.1359438382241662e-03  -1.1781209123151715e-03  6.7338542788533933e-04  3.2288791190402222e-03  6.1325187710934989e-03  8.9425096218023418e-03  1.1232338742760284e-02  1.2664905368957660e-02  1.3052445460140040e-02  1.2414620414145318e-02  1.0981969576443476e-02  9.1012489880766146e-03  7.1051980029347064e-03  5.2445094720742231e-03  3.7063207654042967e-03  2.6634741706961828e-03  2.2714129505862278e-03  7.3163439320403584e-03  7.5601044154963298e-03  8.2691048958187484e-03  9.2620579582951747e-03  1.0349794109675884e-02  1.1411490032525756e-02  1.2404191528064514e-02  1.3322958202509382e-02  1.4154333343876434e-02  1.4855853560704039e-02  1.5361380862276390e-02  1.5579737740977219e-02  1.5379242344421661e-02  1.4607991546451983e-02  1.3166961641254060e-02  1.1064233813299627e-02  8.3971225978341953e-03  5.2866670472380356e-03  1.8147791131150153e-03  -1.9789619185134931e-03  -6.0097892441497869e-03  -1.0035982879589130e-02  -1.3643442733661856e-02  -1.6373788698990178e-02  -1.7930699656342790e-02  -1.8331434895676305e-02  -1.7893029470339043e-02  -1.7052301219417389e-02  -1.6127671301404786e-02  -1.5176695604478804e-02  -1.4041416593803433e-02  -1.2522380049672745e-02  -1.0535417032905009e-02  -8.1541943147892555e-03  -5.5587705132202937e-03  -2.9651107078411429e-03  -5.6934475542318196e-04  1.4980913646670648e-03  3.1988309329630794e-03  4.5618939315724381e-03  5.6074968478179218e-03  6.2877504791619921e-03  6.5036959134278528e-03  6.1665251409170401e-03  5.2366668810953703e-03  3.7386036675170998e-03  1.7813935540915010e-03  -4.1476894907248476e-04  -2.5270920254630491e-03  -4.2168797013364297e-03  -5.2620077404204272e-03  -5.6348439244089188e-03  -5.4761943775555851e-03  -5.0134412790465476e-03  -4.4802733918257375e-03  -4.0576010497013811e-03  -3.8530439068911277e-03  -3.9275568126474203e-03  -4.3174922629064917e-03  -5.0004311745089165e-03  -5.8667241841554316e-03  -6.7931159032484411e-03  -7.7595828972049129e-03  -8.8540995328141772e-03  -1.0141846444223173e-02  -1.1530928330693541e-02  -1.2759593796960515e-02  -1.3500307324817069e-02  -1.3486363484795681e-02  -1.2587474419750859e-02  -1.0826839905754148e-02  -8.3686409366753815e-03  -5.4921488380158638e-03  -2.5455085332191292e-03  1.1865401104519054e-04  2.2008796706846964e-03  3.4836651469481706e-03  3.8565033533642778e-03  3.3598815138667355e-03  2.2043479415638288e-03  7.2607250258085879e-04  -6.9821697678581172e-04  -1.7382210258129801e-03  -2.1686422183276499e-03  -1.8737178667972436e-03  -8.1929060529167775e-04  9.4313443013692953e-04  3.2347252225412714e-03  5.7437987768900458e-03  8.0923299665345561e-03  9.9286874432847755e-03  1.1003441678740868e-02  1.1218738913831756e-02  1.0649203307270792e-02  9.5156815498617583e-03  8.0978458697124004e-03  6.6362309482838888e-03  5.2945380072242929e-03  4.1890323211873377e-03  3.4351031483690446e-03  3.1486904250174292e-03  8.6849891240636107e-03  8.8621833944347791e-03  9.4017557984015961e-03  1.0150310278178729e-02  1.0961523841545872e-02  1.1768208021190895e-02  1.2578022548335463e-02  1.3411640327201615e-02  1.4238709941932361e-02  1.4954779311561814e-02  1.5403569973285628e-02  1.5413174167319799e-02  1.4826439209401609e-02  1.3546485860109755e-02  1.1595956598228964e-02  9.1201039105813942e-03  6.3068878433028596e-03  3.2952891695916652e-03  1.3526955467695582e-04  -3.1815282197854467e-03  -6.6211505539602294e-03  -9.9973635527341523e-03  -1.2954846223898590e-02  -1.5081488098997732e-02  -1.6094952828321824e-02  -1.5994849888789617e-02  -1.5075888778689256e-02  -1.3782310173126030e-02  -1.2484748140363636e-02  -1.1317173989099802e-02  -1.0180073801532798e-02  -8.8831414976070604e-03  -7.2984706649192946e-03  -5.4217505069150147e-03  -3.3473729180221053e-03  -1.2213586798340394e-03  7.9865523160055417e-04  2.5862674261447737e-03  4.0851305230235630e-03  5.3052024328299656e-03  6.2592145410040765e-03  6.8996067966737200e-03  7.1279087809064954e-03  6.8597381278435810e-03  6.0716533834240241e-03  4.8060977323925490e-03  3.1645732898323538e-03  1.3116842899781841e-03  -5.2191685921271691e-04  -2.0775133606947722e-03  -3.1540032121982003e-03  -3.6794867051238227e-03  -3.7163584999043622e-03  -3.4255339273007428e-03  -3.0228886847381261e-03  -2.7208916018132694e-03  -2.6680638328316349e-03  -2.9288069035077130e-03  -3.4953271575543809e-03  -4.2838666751986243e-03  -5.1409752232424149e-03  -5.9304160296333877e-03  -6.6518163453317134e-03  -7.4434584739065833e-03  -8.4352495978005249e-03  -9.5867342279730584e-03  -1.0656089303063047e-02  -1.1308785992190887e-02  -1.1265318409322064e-02  -1.0396867309714933e-02  -8.7481327299300925e-03  -6.5123465745568192e-03  -3.9841534480204608e-03  -1.4996073009141129e-03  6.2662884590599353e-04  2.1493650237048478e-03  2.9134790244954049e-03  2.8728599630982910e-03  2.1298734652982977e-03  9.4339515003341037e-04  -3.4014656055040394e-04  -1.3926969993183140e-03  -1.9809789473008575e-03  -1.9873036227578966e-03  -1.3837834869230986e-03  -1.9815332045948304e-04  1.4844662194285583e-03  3.4912852775198970e-03  5.5592526846581112e-03  7.3889185104914048e-03  8.7207510793134383e-03  9.3988864478559715e-03  9.4082307934112708e-03  8.8685265381406517e-03  7.9835375738535035e-03  6.9641923883312102e-03  5.9671975247168321e-03  5.0851052166965621e-03  4.3763356535835860e-03  3.8997882561687051e-03  3.7212050054948442e-03  9.9884949596345755e-03  1.0103536769010445e-02  1.0467678108101432e-02  1.0953668355118228e-02  1.1449843972562412e-02  1.1932297558740070e-02  1.2458161302455667e-02  1.3090470502852041e-02  1.3814109562819435e-02  1.4495923011809226e-02  1.4907529808116401e-02  1.4791624856467012e-02  1.3944344293837415e-02  1.2298059050243533e-02  9.9755470746672424e-03  7.2499961154442027e-03  4.4056469636426666e-03  1.6084900459462450e-03  -1.1232951039965072e-03  -3.8531443901752512e-03  -6.6053473574672035e-03  -9.2546587772972897e-03  -1.1511378260890749e-02  -1.3023142393171271e-02  -1.3538517546895779e-02  -1.3045402676542379e-02  -1.1799058446301075e-02  -1.0213291043436455e-02  -8.6688742329325327e-03  -7.3515192352126791e-03  -6.2231451751964843e-03  -5.1249216199855414e-03  -3.9107122766986200e-03  -2.5153647399735472e-03  -9.5102012283915455e-04  7.1661894460805804e-04  2.3858053655478476e-03  3.9449308914903791e-03  5.3116405903465228e-03  6.4497650958835057e-03  7.3322952916004000e-03  7.8917782256386348e-03  8.0287200676932447e-03  7.6758083442002197e-03  6.8464580080023112e-03  5.6257153959388025e-03  4.1308944013401152e-03  2.4889577079564617e-03  8.4689647676303170e-04  -6.2040480216917556e-04  -1.7431601600899501e-03  -2.4110717679306721e-03  -2.6063626101428265e-03  -2.4170653650199148e-03  -2.0349402865864541e-03  -1.7047941300189541e-03  -1.6291559819351859e-03  -1.8986470917125690e-03  -2.4851764380417851e-03  -3.2631257560836774e-03  -4.0507762021543955e-03  -4.7072683848622997e-03  -5.2430180792775588e-03  -5.8193415803173398e-03  -6.6019445361894897e-03  -7.5883951423492716e-03  -8.5593982080032997e-03  -9.1789063395934373e-03  -9.1512994999022480e-03  -8.3372023180879086e-03  -6.7930314019154676e-03  -4.7458830219606583e-03  -2.5255300703704432e-03  -4.7712585135045233e-04  1.1161969415381173e-03  2.0757465909069105e-03  2.3299604079604023e-03  1.9110259813206402e-03  9.7677196583826134e-04  -1.8876713043565271e-04  -1.2491003805689296e-03  -1.9267910522723197e-03  -2.0742626626468457e-03  -1.6704847191789402e-03  -7.6993533455737520e-04  5.4017957461506712e-04  2.1409747301244690e-03  3.8647022315423589e-03  5.4996214974483712e-03  6.8307695432971464e-03  7.6934152440832912e-03  8.0162164409694949e-03  7.8459034253290025e-03  7.3292152252922771e-03  6.6465160435184778e-03  5.9420869365949952e-03  5.2977682670044208e-03  4.7527256485547361e-03  4.3318563211202157e-03  4.0598288894195256e-03  3.9627489114231213e-03  1.0886569698694287e-02  1.0950351074929294e-02  1.1150605650808623e-02  1.1385953482574969e-02  1.1572691909685308e-02  1