<?xml version="1.0"?>
<VTKFile type="UnstructuredGrid"  version="0.1"  >
<UnstructuredGrid>
<Piece  NumberOfPoints="10201" NumberOfCells="20000">
<Points>
<DataArray  type="Float64"  NumberOfComponents="3"  format="ascii">0 0 0  0.25 0 0  0.5 0 0  0.75 0 0  1 0 0  1.25 0 0  1.5 0 0  1.75 0 0  2 0 0  2.25 0 0  2.5 0 0  2.75 0 0  3 0 0  3.25 0 0  3.5 0 0  3.75 0 0  4 0 0  4.25 0 0  4.5 0 0  4.75 0 0  5 0 0  5.25 0 0  5.5 0 0  5.75 0 0  6 0 0  6.25 0 0  6.5 0 0  6.75 0 0  7 0 0  7.25 0 0  7.5 0 0  7.75 0 0  8 0 0  8.25 0 0  8.5 0 0  8.75 0 0  9 0 0  9.25 0 0  9.5 0 0  9.75 0 0  10 0 0  10.25 0 0  10.5 0 0  10.75 0 0  11 0 0  11.25 0 0  11.5 0 0  11.75 0 0  12 0 0  12.25 0 0  12.5 0 0  12.75 0 0  13 0 0  13.25 0 0  13.5 0 0  13.75 0 0  14 0 0  14.25 0 0  14.5 0 0  14.75 0 0  15 0 0  15.25 0 0  15.5 0 0  15.75 0 0  16 0 0  16.25 0 0  16.5 0 0  16.75 0 0  17 0 0  17.25 0 0  17.5 0 0  17.75 0 0  18 0 0  18.25 0 0  18.5 0 0  18.75 0 0  19 0 0  19.25 0 0  19.5 0 0  19.75 0 0  20 0 0  20.25 0 0  20.5 0 0  20.75 0 0  21 0 0  21.25 0 0  21.5 0 0  21.75 0 0  22 0 0  22.25 0 0  22.5 0 0  22.75 0 0  23 0 0  23.25 0 0  23.5 0 0  23.75 0 0  24 0 0  24.25 0 0  24.5 0 0  24.75 0 0  25 0 0  0 0.25 0  0.25 0.25 0  0.5 0.25 0  0.75 0.25 0  1 0.25 0  1.25 0.25 0  1.5 0.25 0  1.75 0.25 0  2 0.25 0  2.25 0.25 0  2.5 0.25 0  2.75 0.25 0  3 0.25 0  3.25 0.25 0  3.5 0.25 0  3.75 0.25 0  4 0.25 0  4.25 0.25 0  4.5 0.25 0  4.75 0.25 0  5 0.25 0  5.25 0.25 0  5.5 0.25 0  5.75 0.25 0  6 0.25 0  6.25 0.25 0  6.5 0.25 0  6.75 0.25 0  7 0.25 0  7.25 0.25 0  7.5 0.25 0  7.75 0.25 0  8 0.25 0  8.25 0.25 0  8.5 0.25 0  8.75 0.25 0  9 0.25 0  9.25 0.25 0  9.5 0.25 0  9.75 0.25 0  10 0.25 0  10.25 0.25 0  10.5 0.25 0  10.75 0.25 0  11 0.25 0  11.25 0.25 0  11.5 0.25 0  11.75 0.25 0  12 0.25 0  12.25 0.25 0  12.5 0.25 0  12.75 0.25 0  13 0.25 0  13.25 0.25 0  13.5 0.25 0  13.75 0.25 0  14 0.25 0  14.25 0.25 0  14.5 0.25 0  14.75 0.25 0  15 0.25 0  15.25 0.25 0  15.5 0.25 0  15.75 0.25 0  16 0.25 0  16.25 0.25 0  16.5 0.25 0  16.75 0.25 0  17 0.25 0  17.25 0.25 0  17.5 0.25 0  17.75 0.25 0  18 0.25 0  18.25 0.25 0  18.5 0.25 0  18.75 0.25 0  19 0.25 0  19.25 0.25 0  19.5 0.25 0  19.75 0.25 0  20 0.25 0  20.25 0.25 0  20.5 0.25 0  20.75 0.25 0  21 0.25 0  21.25 0.25 0  21.5 0.25 0  21.75 0.25 0  22 0.25 0  22.25 0.25 0  22.5 0.25 0  22.75 0.25 0  23 0.25 0  23.25 0.25 0  23.5 0.25 0  23.75 0.25 0  24 0.25 0  24.25 0.25 0  24.5 0.25 0  24.75 0.25 0  25 0.25 0  0 0.5 0  0.25 0.5 0  0.5 0.5 0  0.75 0.5 0  1 0.5 0  1.25 0.5 0  1.5 0.5 0  1.75 0.5 0  2 0.5 0  2.25 0.5 0  2.5 0.5 0  2.75 0.5 0  3 0.5 0  3.25 0.5 0  3.5 0.5 0  3.75 0.5 0  4 0.5 0  4.25 0.5 0  4.5 0.5 0  4.75 0.5 0  5 0.5 0  5.25 0.5 0  5.5 0.5 0  5.75 0.5 0  6 0.5 0  6.25 0.5 0  6.5 0.5 0  6.75 0.5 0  7 0.5 0  7.25 0.5 0  7.5 0.5 0  7.75 0.5 0  8 0.5 0  8.25 0.5 0  8.5 0.5 0  8.75 0.5 0  9 0.5 0  9.25 0.5 0  9.5 0.5 0  9.75 0.5 0  10 0.5 0  10.25 0.5 0  10.5 0.5 0  10.75 0.5 0  11 0.5 0  11.25 0.5 0  11.5 0.5 0  11.75 0.5 0  12 0.5 0  12.25 0.5 0  12.5 0.5 0  12.75 0.5 0  13 0.5 0  13.25 0.5 0  13.5 0.5 0  13.75 0.5 0  14 0.5 0  14.25 0.5 0  14.5 0.5 0  14.75 0.5 0  15 0.5 0  15.25 0.5 0  15.5 0.5 0  15.75 0.5 0  16 0.5 0  16.25 0.5 0  16.5 0.5 0  16.75 0.5 0  17 0.5 0  17.25 0.5 0  17.5 0.5 0  17.75 0.5 0  18 0.5 0  18.25 0.5 0  18.5 0.5 0  18.75 0.5 0  19 0.5 0  19.25 0.5 0  19.5 0.5 0  19.75 0.5 0  20 0.5 0  20.25 0.5 0  20.5 0.5 0  20.75 0.5 0  21 0.5 0  21.25 0.5 0  21.5 0.5 0  21.75 0.5 0  22 0.5 0  22.25 0.5 0  22.5 0.5 0  22.75 0.5 0  23 0.5 0  23.25 0.5 0  23.5 0.5 0  23.75 0.5 0  24 0.5 0  24.25 0.5 0  24.5 0.5 0  24.75 0.5 0  25 0.5 0  0 0.75 0  0.25 0.75 0  0.5 0.75 0  0.75 0.75 0  1 0.75 0  1.25 0.75 0  1.5 0.75 0  1.75 0.75 0  2 0.75 0  2.25 0.75 0  2.5 0.75 0  2.75 0.75 0  3 0.75 0  3.25 0.75 0  3.5 0.75 0  3.75 0.75 0  4 0.75 0  4.25 0.75 0  4.5 0.75 0  4.75 0.75 0  5 0.75 0  5.25 0.75 0  5.5 0.75 0  5.75 0.75 0  6 0.75 0  6.25 0.75 0  6.5 0.75 0  6.75 0.75 0  7 0.75 0  7.25 0.75 0  7.5 0.75 0  7.75 0.75 0  8 0.75 0  8.25 0.75 0  8.5 0.75 0  8.75 0.75 0  9 0.75 0  9.25 0.75 0  9.5 0.75 0  9.75 0.75 0  10 0.75 0  10.25 0.75 0  10.5 0.75 0  10.75 0.75 0  11 0.75 0  11.25 0.75 0  11.5 0.75 0  11.75 0.75 0  12 0.75 0  12.25 0.75 0  12.5 0.75 0  12.75 0.75 0  13 0.75 0  13.25 0.75 0  13.5 0.75 0  13.75 0.75 0  14 0.75 0  14.25 0.75 0  14.5 0.75 0  14.75 0.75 0  15 0.75 0  15.25 0.75 0  15.5 0.75 0  15.75 0.75 0  16 0.75 0  16.25 0.75 0  16.5 0.75 0  16.75 0.75 0  17 0.75 0  17.25 0.75 0  17.5 0.75 0  17.75 0.75 0  18 0.75 0  18.25 0.75 0  18.5 0.75 0  18.75 0.75 0  19 0.75 0  19.25 0.75 0  19.5 0.75 0  19.75 0.75 0  20 0.75 0  20.25 0.75 0  20.5 0.75 0  20.75 0.75 0  21 0.75 0  21.25 0.75 0  21.5 0.75 0  21.75 0.75 0  22 0.75 0  22.25 0.75 0  22.5 0.75 0  22.75 0.75 0  23 0.75 0  23.25 0.75 0  23.5 0.75 0  23.75 0.75 0  24 0.75 0  24.25 0.75 0  24.5 0.75 0  24.75 0.75 0  25 0.75 0  0 1 0  0.25 1 0  0.5 1 0  0.75 1 0  1 1 0  1.25 1 0  1.5 1 0  1.75 1 0  2 1 0  2.25 1 0  2.5 1 0  2.75 1 0  3 1 0  3.25 1 0  3.5 1 0  3.75 1 0  4 1 0  4.25 1 0  4.5 1 0  4.75 1 0  5 1 0  5.25 1 0  5.5 1 0  5.75 1 0  6 1 0  6.25 1 0  6.5 1 0  6.75 1 0  7 1 0  7.25 1 0  7.5 1 0  7.75 1 0  8 1 0  8.25 1 0  8.5 1 0  8.75 1 0  9 1 0  9.25 1 0  9.5 1 0  9.75 1 0  10 1 0  10.25 1 0  10.5 1 0  10.75 1 0  11 1 0  11.25 1 0  11.5 1 0  11.75 1 0  12 1 0  12.25 1 0  12.5 1 0  12.75 1 0  13 1 0  13.25 1 0  13.5 1 0  13.75 1 0  14 1 0  14.25 1 0  14.5 1 0  14.75 1 0  15 1 0  15.25 1 0  15.5 1 0  15.75 1 0  16 1 0  16.25 1 0  16.5 1 0  16.75 1 0  17 1 0  17.25 1 0  17.5 1 0  17.75 1 0  18 1 0  18.25 1 0  18.5 1 0  18.75 1 0  19 1 0  19.25 1 0  19.5 1 0  19.75 1 0  20 1 0  20.25 1 0  20.5 1 0  20.75 1 0  21 1 0  21.25 1 0  21.5 1 0  21.75 1 0  22 1 0  22.25 1 0  22.5 1 0  22.75 1 0  23 1 0  23.25 1 0  23.5 1 0  23.75 1 0  24 1 0  24.25 1 0  24.5 1 0  24.75 1 0  25 1 0  0 1.25 0  0.25 1.25 0  0.5 1.25 0  0.75 1.25 0  1 1.25 0  1.25 1.25 0  1.5 1.25 0  1.75 1.25 0  2 1.25 0  2.25 1.25 0  2.5 1.25 0  2.75 1.25 0  3 1.25 0  3.25 1.25 0  3.5 1.25 0  3.75 1.25 0  4 1.25 0  4.25 1.25 0  4.5 1.25 0  4.75 1.25 0  5 1.25 0  5.25 1.25 0  5.5 1.25 0  5.75 1.25 0  6 1.25 0  6.25 1.25 0  6.5 1.25 0  6.75 1.25 0  7 1.25 0  7.25 1.25 0  7.5 1.25 0  7.75 1.25 0  8 1.25 0  8.25 1.25 0  8.5 1.25 0  8.75 1.25 0  9 1.25 0  9.25 1.25 0  9.5 1.25 0  9.75 1.25 0  10 1.25 0  10.25 1.25 0  10.5 1.25 0  10.75 1.25 0  11 1.25 0  11.25 1.25 0  11.5 1.25 0  11.75 1.25 0  12 1.25 0  12.25 1.25 0  12.5 1.25 0  12.75 1.25 0  13 1.25 0  13.25 1.25 0  13.5 1.25 0  13.75 1.25 0  14 1.25 0  14.25 1.25 0  14.5 1.25 0  14.75 1.25 0  15 1.25 0  15.25 1.25 0  15.5 1.25 0  15.75 1.25 0  16 1.25 0  16.25 1.25 0  16.5 1.25 0  16.75 1.25 0  17 1.25 0  17.25 1.25 0  17.5 1.25 0  17.75 1.25 0  18 1.25 0  18.25 1.25 0  18.5 1.25 0  18.75 1.25 0  19 1.25 0  19.25 1.25 0  19.5 1.25 0  19.75 1.25 0  20 1.25 0  20.25 1.25 0  20.5 1.25 0  20.75 1.25 0  21 1.25 0  21.25 1.25 0  21.5 1.25 0  21.75 1.25 0  22 1.25 0  22.25 1.25 0  22.5 1.25 0  22.75 1.25 0  23 1.25 0  23.25 1.25 0  23.5 1.25 0  23.75 1.25 0  24 1.25 0  24.25 1.25 0  24.5 1.25 0  24.75 1.25 0  25 1.25 0  0 1.5 0  0.25 1.5 0  0.5 1.5 0  0.75 1.5 0  1 1.5 0  1.25 1.5 0  1.5 1.5 0  1.75 1.5 0  2 1.5 0  2.25 1.5 0  2.5 1.5 0  2.75 1.5 0  3 1.5 0  3.25 1.5 0  3.5 1.5 0  3.75 1.5 0  4 1.5 0  4.25 1.5 0  4.5 1.5 0  4.75 1.5 0  5 1.5 0  5.25 1.5 0  5.5 1.5 0  5.75 1.5 0  6 1.5 0  6.25 1.5 0  6.5 1.5 0  6.75 1.5 0  7 1.5 0  7.25 1.5 0  7.5 1.5 0  7.75 1.5 0  8 1.5 0  8.25 1.5 0  8.5 1.5 0  8.75 1.5 0  9 1.5 0  9.25 1.5 0  9.5 1.5 0  9.75 1.5 0  10 1.5 0  10.25 1.5 0  10.5 1.5 0  10.75 1.5 0  11 1.5 0  11.25 1.5 0  11.5 1.5 0  11.75 1.5 0  12 1.5 0  12.25 1.5 0  12.5 1.5 0  12.75 1.5 0  13 1.5 0  13.25 1.5 0  13.5 1.5 0  13.75 1.5 0  14 1.5 0  14.25 1.5 0  14.5 1.5 0  14.75 1.5 0  15 1.5 0  15.25 1.5 0  15.5 1.5 0  15.75 1.5 0  16 1.5 0  16.25 1.5 0  16.5 1.5 0  16.75 1.5 0  17 1.5 0  17.25 1.5 0  17.5 1.5 0  17.75 1.5 0  18 1.5 0  18.25 1.5 0  18.5 1.5 0  18.75 1.5 0  19 1.5 0  19.25 1.5 0  19.5 1.5 0  19.75 1.5 0  20 1.5 0  20.25 1.5 0  20.5 1.5 0  20.75 1.5 0  21 1.5 0  21.25 1.5 0  21.5 1.5 0  21.75 1.5 0  22 1.5 0  22.25 1.5 0  22.5 1.5 0  22.75 1.5 0  23 1.5 0  23.25 1.5 0  23.5 1.5 0  23.75 1.5 0  24 1.5 0  24.25 1.5 0  24.5 1.5 0  24.75 1.5 0  25 1.5 0  0 1.75 0  0.25 1.75 0  0.5 1.75 0  0.75 1.75 0  1 1.75 0  1.25 1.75 0  1.5 1.75 0  1.75 1.75 0  2 1.75 0  2.25 1.75 0  2.5 1.75 0  2.75 1.75 0  3 1.75 0  3.25 1.75 0  3.5 1.75 0  3.75 1.75 0  4 1.75 0  4.25 1.75 0  4.5 1.75 0  4.75 1.75 0  5 1.75 0  5.25 1.75 0  5.5 1.75 0  5.75 1.75 0  6 1.75 0  6.25 1.75 0  6.5 1.75 0  6.75 1.75 0  7 1.75 0  7.25 1.75 0  7.5 1.75 0  7.75 1.75 0  8 1.75 0  8.25 1.75 0  8.5 1.75 0  8.75 1.75 0  9 1.75 0  9.25 1.75 0  9.5 1.75 0  9.75 1.75 0  10 1.75 0  10.25 1.75 0  10.5 1.75 0  10.75 1.75 0  11 1.75 0  11.25 1.75 0  11.5 1.75 0  11.75 1.75 0  12 1.75 0  12.25 1.75 0  12.5 1.75 0  12.75 1.75 0  13 1.75 0  13.25 1.75 0  13.5 1.75 0  13.75 1.75 0  14 1.75 0  14.25 1.75 0  14.5 1.75 0  14.75 1.75 0  15 1.75 0  15.25 1.75 0  15.5 1.75 0  15.75 1.75 0  16 1.75 0  16.25 1.75 0  16.5 1.75 0  16.75 1.75 0  17 1.75 0  17.25 1.75 0  17.5 1.75 0  17.75 1.75 0  18 1.75 0  18.25 1.75 0  18.5 1.75 0  18.75 1.75 0  19 1.75 0  19.25 1.75 0  19.5 1.75 0  19.75 1.75 0  20 1.75 0  20.25 1.75 0  20.5 1.75 0  20.75 1.75 0  21 1.75 0  21.25 1.75 0  21.5 1.75 0  21.75 1.75 0  22 1.75 0  22.25 1.75 0  22.5 1.75 0  22.75 1.75 0  23 1.75 0  23.25 1.75 0  23.5 1.75 0  23.75 1.75 0  24 1.75 0  24.25 1.75 0  24.5 1.75 0  24.75 1.75 0  25 1.75 0  0 2 0  0.25 2 0  0.5 2 0  0.75 2 0  1 2 0  1.25 2 0  1.5 2 0  1.75 2 0  2 2 0  2.25 2 0  2.5 2 0  2.75 2 0  3 2 0  3.25 2 0  3.5 2 0  3.75 2 0  4 2 0  4.25 2 0  4.5 2 0  4.75 2 0  5 2 0  5.25 2 0  5.5 2 0  5.75 2 0  6 2 0  6.25 2 0  6.5 2 0  6.75 2 0  7 2 0  7.25 2 0  7.5 2 0  7.75 2 0  8 2 0  8.25 2 0  8.5 2 0  8.75 2 0  9 2 0  9.25 2 0  9.5 2 0  9.75 2 0  10 2 0  10.25 2 0  10.5 2 0  10.75 2 0  11 2 0  11.25 2 0 
[...]
<PointData  Scalars="f_26"> 
<DataArray  type="Float64"  Name="f_26"  format="ascii">4.0341761699468931e-02  3.9956567120668841e-02  3.9234525788262031e-02  3.8123644751836973e-02  3.6622566555587335e-02  3.4759389714035985e-02  3.2601114839104418e-02  3.0258404508647273e-02  2.7865739765064790e-02  2.5563087060466054e-02  2.3490503635178499e-02  2.1777710915298409e-02  2.0521614478835250e-02  1.9763030106121557e-02  1.9473875959294958e-02  1.9570449430129762e-02  1.9949440465045723e-02  2.0509515279291658e-02  2.1139333228446567e-02  2.1694757574834557e-02  2.1993642688912685e-02  2.1841598870048953e-02  2.1087816212533791e-02  1.9689682173653335e-02  1.7747194652345762e-02  1.5476564259720275e-02  1.3117671223282890e-02  1.0827526533120409e-02  8.6262411889116430e-03  6.4270295153688265e-03  4.1239403327011084e-03  1.6696819382508768e-03  -8.9906392183478512e-04  -3.4645462799803048e-03  -5.8291771940138185e-03  -7.7383321342587644e-03  -8.9446505523291617e-03  -9.2886072416095335e-03  -8.7513616780147477e-03  -7.4555906693448788e-03  -5.6320460505387719e-03  -3.5723962287328541e-03  -1.5870902683977632e-03  1.6626648687230057e-05  9.5312737751038679e-04  1.0059015796021441e-03  7.9761090589461020e-05  -1.7818732821728810e-03  -4.4036108986331918e-03  -7.4994994382052583e-03  -1.0733073794786711e-02  -1.3797474272120445e-02  -1.6473841087852444e-02  -1.8642611248783580e-02  -2.0238668396501059e-02  -2.1195305596019148e-02  -2.1440043283430223e-02  -2.0948501563254632e-02  -1.9801258444927486e-02  -1.8189505814162902e-02  -1.6367207448348631e-02  -1.4576064021911812e-02  -1.2981079687613398e-02  -1.1641157656230652e-02  -1.0514792552599472e-02  -9.4872874776255195e-03  -8.4085917156330112e-03  -7.1203480493654157e-03  -5.4724219501295921e-03  -3.3654370400575829e-03  -8.1041535693513725e-04  2.0540207571640959e-03  5.0136018576087968e-03  7.8522412908495921e-03  1.0393576832729253e-02  1.2511931274473656e-02  1.4137279236836525e-02  1.5254798892848783e-02  1.5885787669224997e-02  1.6053651594044826e-02  1.5750226540546686e-02  1.4927214951991718e-02  1.3528223328473204e-02  1.1546454732787269e-02  9.0817639162967187e-03  6.3556709880143118e-03  3.6520007651202196e-03  1.2228031913352698e-03  -7.7709728975770408e-04  -2.3148309538096093e-03  -3.4634745657646602e-03  -4.3453763675941458e-03  -5.0640966600401360e-03  -5.6697686553422973e-03  -6.1630883027020888e-03  -6.5162717415882020e-03  -6.7063731689198042e-03  -6.7478422669226745e-03  -6.6954490362285696e-03  -6.6095527747744159e-03  -6.5037602409264914e-03  3.9365581702997532e-02  3.9117410881164411e-02  3.8451665396098823e-02  3.7389451790896290e-02  3.5945307320481665e-02  3.4148369008183167e-02  3.2060351942758025e-02  2.9785600459401512e-02  2.7455118552369751e-02  2.5206406936114929e-02  2.3176833382195210e-02  2.1495279664708218e-02  2.0261790701894142e-02  1.9523594674814189e-02  1.9259456629546395e-02  1.9388670634975978e-02  1.9805354984810116e-02  2.0403069070633308e-02  2.1066396716812891e-02  2.1648546730530231e-02  2.1965865622167298e-02  2.1824209559781718e-02  2.1073034923487159e-02  1.9667490534820722e-02  1.7703669672121822e-02  1.5396995832009427e-02  1.2993452073658100e-02  1.0660626285279412e-02  8.4286432424545213e-03  6.2148880750781624e-03  3.9095575227306939e-03  1.4582703127910487e-03  -1.1060713529057080e-03  -3.6667810746570805e-03  -6.0283653254955809e-03  -7.9385014358823620e-03  -9.1497615523217224e-03  -9.4989793403722697e-03  -8.9618705803096443e-03  -7.6568775745906020e-03  -5.8139235334098071e-03  -3.7291608976505607e-03  -1.7212483134745027e-03  -1.0258265806474362e-04  8.4253813315542786e-04  9.0136380966125175e-04  -1.7974063706577673e-05  -1.8686290112511254e-03  -4.4738043588843706e-03  -7.5493963744631140e-03  -1.0760919382263210e-02  -1.3802702093183307e-02  -1.6454973184338847e-02  -1.8594790301307122e-02  -2.0155592192476441e-02  -2.1073762500127522e-02  -2.1282448868636977e-02  -2.0761140570277788e-02  -1.9590043165191258e-02  -1.7956713164903975e-02  -1.6111484482484412e-02  -1.4295496052427034e-02  -1.2677311094876742e-02  -1.1321607903033425e-02  -1.0192151275094666e-02  -9.1762862439121497e-03  -8.1226940899257524e-03  -6.8732796911433643e-03  -5.2812373886697564e-03  -3.2467281616723187e-03  -7.7232425415737832e-04  2.0138542956002459e-03  4.9025717170594453e-03  7.6779079169470351e-03  1.0164087443889851e-02  1.2238307313858957e-02  1.3833469791060258e-02  1.4936453824415524e-02  1.5568888683509963e-02  1.5752445893282240e-02  1.5476488376642445e-02  1.4691112627947707e-02  1.3338957754173073e-02  1.1411648353057071e-02  9.0042433101041527e-03  6.3308852100536529e-03  3.6705088069130688e-03  1.2753554995604995e-03  -6.9450136769527325e-04  -2.1970111905269098e-03  -3.2974316549014338e-03  -4.1170494281723832e-03  -4.7642068830801940e-03  -5.2953963459581293e-03  -5.7186413242650081e-03  -6.0143121292408550e-03  -6.1650089144302724e-03  -6.1853915942274825e-03  -6.1278246919151515e-03  -6.0572720492276001e-03  -6.0260896570282635e-03  3.6909443548427012e-02  3.6722872118504661e-02  3.6145656500720970e-02  3.5200474239023387e-02  3.3905426602717358e-02  3.2285211016608091e-02  3.0389178648649075e-02  2.8305852380244523e-02  2.6154376874994289e-02  2.4064733598094308e-02  2.2168361748299094e-02  2.0591320565069845e-02  1.9438868169398250e-02  1.8772386036225597e-02  1.8586763464773500e-02  1.8810150718605766e-02  1.9334403854527015e-02  2.0043553471336906e-02  2.0811084369350790e-02  2.1480467614621905e-02  2.1860207722318468e-02  2.1752254475520139e-02  2.1006084757471559e-02  1.9576231948073525e-02  1.7556065777645017e-02  1.5162153377620276e-02  1.2652533827667668e-02  1.0214639041472696e-02  7.8979509545326482e-03  5.6311004250862518e-03  3.3024184713514883e-03  8.4552236661474434e-04  -1.7180970977361584e-03  -4.2762677368582908e-03  -6.6347438620758007e-03  -8.5421259012990244e-03  -9.7510458828594677e-03  -1.0095364138477501e-02  -9.5437863372844559e-03  -8.2070003089104605e-03  -6.3125078603626728e-03  -4.1643833090675292e-03  -2.0984420433773567e-03  -4.4218211829084218e-04  5.1861300262127702e-04  5.8166983265374060e-04  -3.3184984237496042e-04  -2.1640529381827945e-03  -4.7308026238666607e-03  -7.7478673283732525e-03  -1.0886143408067627e-02  -1.3847107732566628e-02  -1.6415697876375434e-02  -1.8466273167745153e-02  -1.9925838726147730e-02  -2.0729853561775861e-02  -2.0820598266739824e-02  -2.0192044845543690e-02  -1.8933778392370516e-02  -1.7231761449393628e-02  -1.5328052274116044e-02  -1.3457758239351379e-02  -1.1791952466527499e-02  -1.0405861585164253e-02  -9.2755688568482673e-03  -8.2955379722683235e-03  -7.3141029407218783e-03  -6.1717635759166471e-03  -4.7247795805151135e-03  -2.8738671969608157e-03  -6.0933066823676719e-04  1.9617643913841677e-03  4.6464151170917314e-03  7.2351392375442324e-03  9.5553532380481237e-03  1.1491050832249291e-02  1.2985064495247804e-02  1.4032741825931871e-02  1.4659187736274556e-02  1.4881220171088595e-02  1.4676771550850287e-02  1.3985396255653171e-02  1.2744506845434352e-02  1.0944640539908648e-02  8.6778608118792556e-03  6.1484080430202776e-03  3.6227457809993452e-03  1.3467614236335466e-03  -5.1397964100168177e-04  -1.9009092578586453e-03  -2.8617954700956077e-03  -3.5116001604755922e-03  -3.9656248390162402e-03  -4.2944351391451139e-03  -4.5235077743948134e-03  -4.6527272913004774e-03  -4.6804333141905420e-03  -4.6265239772475915e-03  -4.5375373286618646e-03  -4.4683042198869908e-03  -4.4618906828116922e-03  3.3056624121231518e-02  3.2921987029960430e-02  3.2455662742855801e-02  3.1674407733389608e-02  3.0592786418944824e-02  2.9226658843286481e-02  2.7609117564276420e-02  2.5807896016436387e-02  2.3924695666349610e-02  2.2078384678315438e-02  2.0392350921315486e-02  1.8988081728762828e-02  1.7975228693419425e-02  1.7432205564578661e-02  1.7376167318039946e-02  1.7748859198944592e-02  1.8440086329100477e-02  1.9321811685998575e-02  2.0253384670674775e-02  2.1066237759096829e-02  2.1559889786372605e-02  2.1530246508161231e-02  2.0823648675621465e-02  1.9391346667112258e-02  1.7321538459198645e-02  1.4828467931236308e-02  1.2181052944087016e-02  9.5920996574593992e-03  7.1409487355572248e-03  4.7786233550047696e-03  2.3996461661951515e-03  -7.3584866509227386e-05  -2.6378560571266693e-03  -5.1928157364414789e-03  -7.5476770931796489e-03  -9.4510045589001560e-03  -1.0654820882852162e-02  -1.0991039874813351e-02  -1.0422169002466666e-02  -9.0502672983182771e-03  -7.0991809609003741e-03  -4.8808217043020529e-03  -2.7486932883564025e-03  -1.0462795066576902e-03  -6.0811132078347721e-05  1.8232508047828299e-05  -8.7144096405408929e-04  -2.6591779730277942e-03  -5.1526766137475694e-03  -8.0672477383664266e-03  -1.1081924958490136e-02  -1.3908957201954047e-02  -1.6339333321566601e-02  -1.8243868421657122e-02  -1.9540301317146527e-02  -2.0161588783035686e-02  -2.0062123975228333e-02  -1.9258068802253767e-02  -1.7856710975248394e-02  -1.6046115607807641e-02  -1.4057773174746048e-02  -1.2116461705193583e-02  -1.0393810286091537e-02  -8.9770081873739981e-03  -7.8578712563952286e-03  -6.9416652832878711e-03  -6.0787204522201703e-03  -5.1072706615893117e-03  -3.8833766106089501e-03  -2.3057330919835492e-03  -3.5028280534259203e-04  1.9026489403964628e-03  4.2840988915242633e-03  6.5958531849151791e-03  8.6691893040840452e-03  1.0395010708306783e-02  1.1729134789351132e-02  1.2680221553726488e-02  1.3279954191746164e-02  1.3539643038150270e-02  1.3420906600413932e-02  1.2846451823694170e-02  1.1745432299719400e-02  1.0109216151450339e-02  8.0307225294622784e-03  5.7052274379920855e-03  3.3830103715971694e-03  1.2984410920228260e-03  -3.8037442651242591e-04  -1.5780304590377753e-03  -2.3216811297429199e-03  -2.7166013225218637e-03  -2.8862094702831170e-03  -2.9216864417640322e-03  -2.8733329343071357e-03  -2.7653539121099092e-03  -2.6136937611508154e-03  -2.4430950531641221e-03  -2.2921177190060676e-03  -2.2009839924777242e-03  -2.1970142045649402e-03  2.8089648098984784e-02  2.8003051869207186e-02  2.7657467914763645e-02  2.7060814957525280e-02  2.6219755164658201e-02  2.5139053803458520e-02  2.3835133567982156e-02  2.2355610416097328e-02  2.0784791093710377e-02  1.9229892202714132e-02  1.7805064692221158e-02  1.6625625904612199e-02  1.5803851054885049e-02  1.5433881833192177e-02  1.5555714144611049e-02  1.6126329272355182e-02  1.7033469797200371e-02  1.8135297710368471e-02  1.9276942315982031e-02  2.0280257732053376e-02  2.0939712077188238e-02  2.1047328112093876e-02  2.0443944664788227e-02  1.9071840713494524e-02  1.7007453637715868e-02  1.4454348484227017e-02  1.1682954615760601e-02  8.9286020982370998e-03  6.3083820060755268e-03  3.8101075910611294e-03  1.3485386635097602e-03  -1.1571391206434065e-03  -3.7234039740345914e-03  -6.2692212880777866e-03  -8.6139463947584437e-03  -1.0509650822659634e-02  -1.1709461265923038e-02  -1.2045057364161432e-02  -1.1474328303218940e-02  -1.0090811679422567e-02  -8.1123932993212786e-03  -5.8537916003811872e-03  -3.6788887700517133e-03  -1.9401886354990653e-03  -9.2330259214446105e-04  -8.0633931540220142e-04  -1.6382021568999540e-03  -3.3395201681309392e-03  -5.7142222158555033e-03  -8.4791702793948643e-03  -1.1322136295649852e-02  -1.3966788602234801e-02  -1.6208942146863629e-02  -1.7913945096941448e-02  -1.8990253035963533e-02  -1.9370692317860188e-02  -1.9025335452968067e-02  -1.7996009139130083e-02  -1.6411504872621475e-02  -1.4465089520841974e-02  -1.2378498513438869e-02  -1.0364894126789405e-02  -8.5945824270479594e-03  -7.1649521545630920e-03  -6.0820563522204817e-03  -5.2622146959750392e-03  -4.5602233159296682e-03  -3.8131513718692419e-03  -2.8739449233622411e-03  -1.6342196668523165e-03  -5.2283054130015697e-05  1.8202391851005564e-03  3.8413590269486607e-03  5.8261719996071460e-03  7.6095257713453563e-03  9.0875293213124146e-03  1.0227141267786677e-02  1.1049343961130503e-02  1.1592670718675441e-02  1.1864491656406510e-02  1.1811507684530690e-02  1.1339026214477532e-02  1.0367466675816537e-02  8.8912736132051497e-03  7.0086152233034462e-03  4.9094902194553773e-03  2.8285018159170138e-03  9.8529152193615197e-04  -4.5558750507487128e-04  -1.4081251311781843e-03  -1.8827492538856867e-03  -1.9754294424674640e-03  -1.8171903212055936e-03  -1.5216369074497900e-03  -1.1662355287236944e-03  -7.9893216431906717e-04  -4.4930744903481343e-04  -1.4228064013268842e-04  9.3164717308385451e-05  2.2882601468442325e-04  2.4821655959433956e-04  2.2436125527168459e-02  2.2388090332147580e-02  2.2155625606238325e-02  2.1735197962567863e-02  2.1122593225651569e-02  2.0311442528670332e-02  1.9303384240406101e-02  1.8129474976975268e-02  1.6861089428034371e-02  1.5597800211770842e-02  1.4446954974755059e-02  1.3517445482951045e-02  1.2921570947354943e-02  1.2764600947938156e-02  1.3104835794573520e-02  1.3912534536565014e-02  1.5073300584921987e-02  1.6430437617275920e-02  1.7814738030867222e-02  1.9042574621028877e-02  1.9910841556002336e-02  2.0214457343058375e-02  1.9790281393500964e-02  1.8567139453722740e-02  1.6601099058539757e-02  1.4073715828730559e-02  1.1242367572659930e-02  8.3527425122059094e-03  5.5589973856400004e-03  2.8976377369496409e-03  3.2092034449974832e-04  -2.2403101641025880e-03  -4.8148891328702037e-03  -7.3433104068883542e-03  -9.6632007610589227e-03  -1.1539718240160507e-02  -1.2735202166189485e-02  -1.3086136926774570e-02  -1.2547748642323326e-02  -1.1203587968962439e-02  -9.2599132523392778e-03  -7.0236303704411425e-03  -4.8556652501805840e-03  -3.1069793094399313e-03  -2.0586947476448842e-03  -1.8818804929927721e-03  -2.6189553926433367e-03  -4.1875514860366765e-03  -6.3935861641890180e-03  -8.9598620514156919e-03  -1.1583561193903448e-02  -1.3998278244508552e-02  -1.6002859119462521e-02  -1.7456919790117684e-02  -1.8262941054242393e-02  -1.8359193275082737e-02  -1.7735046723680398e-02  -1.6456875621975137e-02  -1.4672474793507998e-02  -1.2580663001135561e-02  -1.0395955340386995e-02  -8.3221138608522444e-03  -6.5274896876153822e-03  -5.1164716663423511e-03  -4.1051422155653590e-03  -3.4183341376857763e-03  -2.9158477880929031e-03  -2.4348572121728374e-03  -1.8235891833050762e-03  -9.6217355590455739e-04  2.1268590945891307e-04  1.6786020763812778e-03  3.3195726412387802e-03  4.9634433053221778e-03  6.4481942265949303e-03  7.6733350918956863e-03  8.6121847411597882e-03  9.2911116113498539e-03  9.7506066525474399e-03  9.9954253848908436e-03  9.9637847728524832e-03  9.5501284820359474e-03  8.6698065880885297e-03  7.3223267715699101e-03  5.6136204663076259e-03  3.7320021757053607e-03  1.8991599786438442e-03  3.1920649220686055e-04  -8.5382705044368215e-04  -1.5346138443368947e-03  -1.7258103876999660e-03  -1.5167380563890635e-03  -1.0431716877986428e-03  -4.3645700759516068e-04  2.0292382653112851e-04  8.0789913327155270e-04  1.3399951349705305e-03  1.7778065893162285e-03  2.1027448878391192e-03  2.2951162741265806e-03  2.3425391418842420e-03  1.6562712374741113e-02  1.6540515263539009e-02  1.6398827112110222e-02  1.6123157050714897e-02  1.5697567542549473e-02  1.5105363193163673e-02  1.4336727572432669e-02  1.3410477165395823e-02  1.2390240015849948e-02  1.1374289850752650e-02  1.0469887539165184e-02  9.7829556392879206e-03  9.4237893382634035e-03  9.5015222641625634e-03  1.0083892660509871e-02  1.1149455738912958e-02  1.2582091593055157e-02  1.4211523759573030e-02  1.5854413076934783e-02  1.7325026733198742e-02  1.8430816081261767e-02  1.8978698490349621e-02  1.8805962327811409e-02  1.7826331518218077e-02  1.6068211254496461e-02  1.3680096235060423e-02  1.0892019932359179e-02  7.9435372197148215e-03  5.0145687911495708e-03  2.1918021883862793e-03  -5.2135730864828647e-04  -3.1640212621891796e-03  -5.7616247095941368e-03  -8.2697566297938781e-03  -1.0548743223909904e-02  -1.2388742162337612e-02  -1.3575192069932370e-02  -1.3959355018853949e-02  -1.3497291053255053e-02  -1.2259724265319304e-02  -1.0432486774939582e-02  -8.3006070639246882e-03  -6.2060218215547946e-03  -4.4868474315929241e-03  -3.4182386282367986e-03  -3.1701845278498350e-03  -3.7857567029113562e-03  -5.1829764715767028e-03  -7.1720164370428566e-03  -9.4862732564631336e-03  -1.1836590179397550e-02  -1.3968060662658760e-02  -1.5683273858249334e-02  -1.6838647358586294e-02  -1.7335949669449995e-02  -1.7124243637858787e-02  -1.6214071796194357e-02  -1.4692085485636530e-02  -1.2717504459110376e-02  -1.0491078312733982e-02  -8.2222281018036192e-03  -6.1092650786452414e-03  -4.3197371294680046e-03  -2.9626514975200388e-03  -2.0607904612693962e-03  -1.5450864751931775e-03  -1.2788090026597215e-03  -1.0971767319364323e-03  -8.4075364223580129e-04  -3.7535967305275738e-04  3.8543934600739554e-04  1.4469712473203793e-03  2.7159008630478466e-03  4.0308959007034949e-03  5.2325261818711964e-03  6.2218963237781607e-03  6.9732458419102918e-03  7.5094857733707119e-03  7.8649626427960487e-03  8.0410680688358452e-03  7.9760126598820962e-03  7.5649405504975677e-03  6.7259441218349312e-03  5.4654028052750396e-03  3.8960225331261993e-03  2.2051441464727636e-03  6.0371295612605914e-04  -7.1881688865307099e-04  -1.6232068421906055e-03  -2.0367072328377834e-03  -1.9667962271544799e-03  -1.5002790944619753e-03  -7.7194007410564451e-04  8.0314537115132743e-05  9.4294154730702596e-04  1.7358155301221594e-03  2.4137653652154330e-03  2.9579743032579955e-03  3.3586673199083130e-03  3.6037059754054045e-03  3.6824009302488573e-03  1.0872447148138616e-02  1.0864443988776083e-02  1.0784834933559181e-02  1.0612110400955884e-02  1.0320549461188924e-02  9.8840067717231115e-03  9.2837812654676059e-03  8.5304546595064666e-03  7.6841173013715691e-03  6.8472503048472837e-03  6.1349343499528608e-03  5.6564355111303989e-03  5.5195406197711995e-03  5.8292472116915073e-03  6.6515842274804931e-03  7.9663704093209820e-03  9.6568517578889315e-03  1.1544768569804340e-02  1.3436917319381873e-02  1.5148949705739725e-02  1.6504294750046326e-02  1.7328867693853285e-02  1.7464982435566247e-02  1.6811068238102463e-02  1.5363381597275225e-02  1.3229374951697650e-02  1.0601804200318947e-02  7.7009149853760695e-03  4.7165014911761810e-03  1.7744103717125398e-03  -1.0686275805924799e-03  -3.8071603576747674e-03  -6.4446810720436469e-03  -8.9387472091445336e-03  -1.1170503695518481e-02  -1.2963226676198163e-02  -1.4138424596854856e-02  -1.4573302891572102e-02  -1.4229691779782228e-02  -1.3162876300340789e-02  -1.1529608478035008e-02  -9.5807102413936109e-03  -7.6261694785392997e-03  -5.9820626996390036e-03  -4.9154668181590607e-03  -4.5987128684447506e-03  -5.0797173037375751e-03  -6.2779587797419014e-03  -8.0069393968738578e-03  -1.0013471583259071e-02  -1.2029018532809773e-02  -1.3817267161038670e-02  -1.5191059354896865e-02  -1.6009795598182958e-02  -1.6179615147567002e-02  -1.5661976098418108e-02  -1.4485612249754946e-02  -1.2751150226602892e-02  -1.0620537695306990e-02  -8.2900064258303284e-03  -5.9637697199105598e-03  -3.8384810326850790e-03  -2.0835483782029288e-03  -8.1215839304888673e-04  -5.2449154666020028e-05  2.5909773407048112e-04  2.5756265057863363e-04  1.1471823610992851e-04  4.1570219427245879e-06  7.7652139551621338e-05  4.4284931825837553e-04  1.1271839678886359e-03  2.0539568901863431e-03  3.0694847576307415e-03  4.0158638240929351e-03  4.7933617591345715e-03  5.3722413656378930e-03  5.7653112089543880e-03  5.9944369205053201e-03  6.0564001575446431e-03  5.8978089220456439e-03  5.4286615655565447e-03  4.5803068987472721e-03  3.3679007248728645e-03  1.9066255358512812e-03  3.7871692052681528e-04  -1.0165084696742172e-03  -2.1039025006277866e-03  -2.7603604017581076e-03  -2.9330535723201940e-03  -2.6462241796756892e-03  -1.9898671544228146e-03  -1.0911461757875862e-03  -8.0121836868501093e-05  9.3031817072842225e-04  1.8532112556751080e-03  2.6350432920690587e-03  3.2540061806599282e-03  3.7050878830323366e-03  3.9848779790538020e-03  4.0878259363298008e-03  5.6582723600759922e-03  5.6568406109484227e-03  5.6141945539786358e-03  5.5063753397938302e-03  5.3014571489115704e-03  4.9648600921834863e