<?xml version="1.0"?>
<VTKFile type="UnstructuredGrid"  version="0.1"  >
<UnstructuredGrid>
<Piece  NumberOfPoints="10201" NumberOfCells="20000">
<Points>
<DataArray  type="Float64"  NumberOfComponents="3"  format="ascii">0 0 0  0.25 0 0  0.5 0 0  0.75 0 0  1 0 0  1.25 0 0  1.5 0 0  1.75 0 0  2 0 0  2.25 0 0  2.5 0 0  2.75 0 0  3 0 0  3.25 0 0  3.5 0 0  3.75 0 0  4 0 0  4.25 0 0  4.5 0 0  4.75 0 0  5 0 0  5.25 0 0  5.5 0 0  5.75 0 0  6 0 0  6.25 0 0  6.5 0 0  6.75 0 0  7 0 0  7.25 0 0  7.5 0 0  7.75 0 0  8 0 0  8.25 0 0  8.5 0 0  8.75 0 0  9 0 0  9.25 0 0  9.5 0 0  9.75 0 0  10 0 0  10.25 0 0  10.5 0 0  10.75 0 0  11 0 0  11.25 0 0  11.5 0 0  11.75 0 0  12 0 0  12.25 0 0  12.5 0 0  12.75 0 0  13 0 0  13.25 0 0  13.5 0 0  13.75 0 0  14 0 0  14.25 0 0  14.5 0 0  14.75 0 0  15 0 0  15.25 0 0  15.5 0 0  15.75 0 0  16 0 0  16.25 0 0  16.5 0 0  16.75 0 0  17 0 0  17.25 0 0  17.5 0 0  17.75 0 0  18 0 0  18.25 0 0  18.5 0 0  18.75 0 0  19 0 0  19.25 0 0  19.5 0 0  19.75 0 0  20 0 0  20.25 0 0  20.5 0 0  20.75 0 0  21 0 0  21.25 0 0  21.5 0 0  21.75 0 0  22 0 0  22.25 0 0  22.5 0 0  22.75 0 0  23 0 0  23.25 0 0  23.5 0 0  23.75 0 0  24 0 0  24.25 0 0  24.5 0 0  24.75 0 0  25 0 0  0 0.25 0  0.25 0.25 0  0.5 0.25 0  0.75 0.25 0  1 0.25 0  1.25 0.25 0  1.5 0.25 0  1.75 0.25 0  2 0.25 0  2.25 0.25 0  2.5 0.25 0  2.75 0.25 0  3 0.25 0  3.25 0.25 0  3.5 0.25 0  3.75 0.25 0  4 0.25 0  4.25 0.25 0  4.5 0.25 0  4.75 0.25 0  5 0.25 0  5.25 0.25 0  5.5 0.25 0  5.75 0.25 0  6 0.25 0  6.25 0.25 0  6.5 0.25 0  6.75 0.25 0  7 0.25 0  7.25 0.25 0  7.5 0.25 0  7.75 0.25 0  8 0.25 0  8.25 0.25 0  8.5 0.25 0  8.75 0.25 0  9 0.25 0  9.25 0.25 0  9.5 0.25 0  9.75 0.25 0  10 0.25 0  10.25 0.25 0  10.5 0.25 0  10.75 0.25 0  11 0.25 0  11.25 0.25 0  11.5 0.25 0  11.75 0.25 0  12 0.25 0  12.25 0.25 0  12.5 0.25 0  12.75 0.25 0  13 0.25 0  13.25 0.25 0  13.5 0.25 0  13.75 0.25 0  14 0.25 0  14.25 0.25 0  14.5 0.25 0  14.75 0.25 0  15 0.25 0  15.25 0.25 0  15.5 0.25 0  15.75 0.25 0  16 0.25 0  16.25 0.25 0  16.5 0.25 0  16.75 0.25 0  17 0.25 0  17.25 0.25 0  17.5 0.25 0  17.75 0.25 0  18 0.25 0  18.25 0.25 0  18.5 0.25 0  18.75 0.25 0  19 0.25 0  19.25 0.25 0  19.5 0.25 0  19.75 0.25 0  20 0.25 0  20.25 0.25 0  20.5 0.25 0  20.75 0.25 0  21 0.25 0  21.25 0.25 0  21.5 0.25 0  21.75 0.25 0  22 0.25 0  22.25 0.25 0  22.5 0.25 0  22.75 0.25 0  23 0.25 0  23.25 0.25 0  23.5 0.25 0  23.75 0.25 0  24 0.25 0  24.25 0.25 0  24.5 0.25 0  24.75 0.25 0  25 0.25 0  0 0.5 0  0.25 0.5 0  0.5 0.5 0  0.75 0.5 0  1 0.5 0  1.25 0.5 0  1.5 0.5 0  1.75 0.5 0  2 0.5 0  2.25 0.5 0  2.5 0.5 0  2.75 0.5 0  3 0.5 0  3.25 0.5 0  3.5 0.5 0  3.75 0.5 0  4 0.5 0  4.25 0.5 0  4.5 0.5 0  4.75 0.5 0  5 0.5 0  5.25 0.5 0  5.5 0.5 0  5.75 0.5 0  6 0.5 0  6.25 0.5 0  6.5 0.5 0  6.75 0.5 0  7 0.5 0  7.25 0.5 0  7.5 0.5 0  7.75 0.5 0  8 0.5 0  8.25 0.5 0  8.5 0.5 0  8.75 0.5 0  9 0.5 0  9.25 0.5 0  9.5 0.5 0  9.75 0.5 0  10 0.5 0  10.25 0.5 0  10.5 0.5 0  10.75 0.5 0  11 0.5 0  11.25 0.5 0  11.5 0.5 0  11.75 0.5 0  12 0.5 0  12.25 0.5 0  12.5 0.5 0  12.75 0.5 0  13 0.5 0  13.25 0.5 0  13.5 0.5 0  13.75 0.5 0  14 0.5 0  14.25 0.5 0  14.5 0.5 0  14.75 0.5 0  15 0.5 0  15.25 0.5 0  15.5 0.5 0  15.75 0.5 0  16 0.5 0  16.25 0.5 0  16.5 0.5 0  16.75 0.5 0  17 0.5 0  17.25 0.5 0  17.5 0.5 0  17.75 0.5 0  18 0.5 0  18.25 0.5 0  18.5 0.5 0  18.75 0.5 0  19 0.5 0  19.25 0.5 0  19.5 0.5 0  19.75 0.5 0  20 0.5 0  20.25 0.5 0  20.5 0.5 0  20.75 0.5 0  21 0.5 0  21.25 0.5 0  21.5 0.5 0  21.75 0.5 0  22 0.5 0  22.25 0.5 0  22.5 0.5 0  22.75 0.5 0  23 0.5 0  23.25 0.5 0  23.5 0.5 0  23.75 0.5 0  24 0.5 0  24.25 0.5 0  24.5 0.5 0  24.75 0.5 0  25 0.5 0  0 0.75 0  0.25 0.75 0  0.5 0.75 0  0.75 0.75 0  1 0.75 0  1.25 0.75 0  1.5 0.75 0  1.75 0.75 0  2 0.75 0  2.25 0.75 0  2.5 0.75 0  2.75 0.75 0  3 0.75 0  3.25 0.75 0  3.5 0.75 0  3.75 0.75 0  4 0.75 0  4.25 0.75 0  4.5 0.75 0  4.75 0.75 0  5 0.75 0  5.25 0.75 0  5.5 0.75 0  5.75 0.75 0  6 0.75 0  6.25 0.75 0  6.5 0.75 0  6.75 0.75 0  7 0.75 0  7.25 0.75 0  7.5 0.75 0  7.75 0.75 0  8 0.75 0  8.25 0.75 0  8.5 0.75 0  8.75 0.75 0  9 0.75 0  9.25 0.75 0  9.5 0.75 0  9.75 0.75 0  10 0.75 0  10.25 0.75 0  10.5 0.75 0  10.75 0.75 0  11 0.75 0  11.25 0.75 0  11.5 0.75 0  11.75 0.75 0  12 0.75 0  12.25 0.75 0  12.5 0.75 0  12.75 0.75 0  13 0.75 0  13.25 0.75 0  13.5 0.75 0  13.75 0.75 0  14 0.75 0  14.25 0.75 0  14.5 0.75 0  14.75 0.75 0  15 0.75 0  15.25 0.75 0  15.5 0.75 0  15.75 0.75 0  16 0.75 0  16.25 0.75 0  16.5 0.75 0  16.75 0.75 0  17 0.75 0  17.25 0.75 0  17.5 0.75 0  17.75 0.75 0  18 0.75 0  18.25 0.75 0  18.5 0.75 0  18.75 0.75 0  19 0.75 0  19.25 0.75 0  19.5 0.75 0  19.75 0.75 0  20 0.75 0  20.25 0.75 0  20.5 0.75 0  20.75 0.75 0  21 0.75 0  21.25 0.75 0  21.5 0.75 0  21.75 0.75 0  22 0.75 0  22.25 0.75 0  22.5 0.75 0  22.75 0.75 0  23 0.75 0  23.25 0.75 0  23.5 0.75 0  23.75 0.75 0  24 0.75 0  24.25 0.75 0  24.5 0.75 0  24.75 0.75 0  25 0.75 0  0 1 0  0.25 1 0  0.5 1 0  0.75 1 0  1 1 0  1.25 1 0  1.5 1 0  1.75 1 0  2 1 0  2.25 1 0  2.5 1 0  2.75 1 0  3 1 0  3.25 1 0  3.5 1 0  3.75 1 0  4 1 0  4.25 1 0  4.5 1 0  4.75 1 0  5 1 0  5.25 1 0  5.5 1 0  5.75 1 0  6 1 0  6.25 1 0  6.5 1 0  6.75 1 0  7 1 0  7.25 1 0  7.5 1 0  7.75 1 0  8 1 0  8.25 1 0  8.5 1 0  8.75 1 0  9 1 0  9.25 1 0  9.5 1 0  9.75 1 0  10 1 0  10.25 1 0  10.5 1 0  10.75 1 0  11 1 0  11.25 1 0  11.5 1 0  11.75 1 0  12 1 0  12.25 1 0  12.5 1 0  12.75 1 0  13 1 0  13.25 1 0  13.5 1 0  13.75 1 0  14 1 0  14.25 1 0  14.5 1 0  14.75 1 0  15 1 0  15.25 1 0  15.5 1 0  15.75 1 0  16 1 0  16.25 1 0  16.5 1 0  16.75 1 0  17 1 0  17.25 1 0  17.5 1 0  17.75 1 0  18 1 0  18.25 1 0  18.5 1 0  18.75 1 0  19 1 0  19.25 1 0  19.5 1 0  19.75 1 0  20 1 0  20.25 1 0  20.5 1 0  20.75 1 0  21 1 0  21.25 1 0  21.5 1 0  21.75 1 0  22 1 0  22.25 1 0  22.5 1 0  22.75 1 0  23 1 0  23.25 1 0  23.5 1 0  23.75 1 0  24 1 0  24.25 1 0  24.5 1 0  24.75 1 0  25 1 0  0 1.25 0  0.25 1.25 0  0.5 1.25 0  0.75 1.25 0  1 1.25 0  1.25 1.25 0  1.5 1.25 0  1.75 1.25 0  2 1.25 0  2.25 1.25 0  2.5 1.25 0  2.75 1.25 0  3 1.25 0  3.25 1.25 0  3.5 1.25 0  3.75 1.25 0  4 1.25 0  4.25 1.25 0  4.5 1.25 0  4.75 1.25 0  5 1.25 0  5.25 1.25 0  5.5 1.25 0  5.75 1.25 0  6 1.25 0  6.25 1.25 0  6.5 1.25 0  6.75 1.25 0  7 1.25 0  7.25 1.25 0  7.5 1.25 0  7.75 1.25 0  8 1.25 0  8.25 1.25 0  8.5 1.25 0  8.75 1.25 0  9 1.25 0  9.25 1.25 0  9.5 1.25 0  9.75 1.25 0  10 1.25 0  10.25 1.25 0  10.5 1.25 0  10.75 1.25 0  11 1.25 0  11.25 1.25 0  11.5 1.25 0  11.75 1.25 0  12 1.25 0  12.25 1.25 0  12.5 1.25 0  12.75 1.25 0  13 1.25 0  13.25 1.25 0  13.5 1.25 0  13.75 1.25 0  14 1.25 0  14.25 1.25 0  14.5 1.25 0  14.75 1.25 0  15 1.25 0  15.25 1.25 0  15.5 1.25 0  15.75 1.25 0  16 1.25 0  16.25 1.25 0  16.5 1.25 0  16.75 1.25 0  17 1.25 0  17.25 1.25 0  17.5 1.25 0  17.75 1.25 0  18 1.25 0  18.25 1.25 0  18.5 1.25 0  18.75 1.25 0  19 1.25 0  19.25 1.25 0  19.5 1.25 0  19.75 1.25 0  20 1.25 0  20.25 1.25 0  20.5 1.25 0  20.75 1.25 0  21 1.25 0  21.25 1.25 0  21.5 1.25 0  21.75 1.25 0  22 1.25 0  22.25 1.25 0  22.5 1.25 0  22.75 1.25 0  23 1.25 0  23.25 1.25 0  23.5 1.25 0  23.75 1.25 0  24 1.25 0  24.25 1.25 0  24.5 1.25 0  24.75 1.25 0  25 1.25 0  0 1.5 0  0.25 1.5 0  0.5 1.5 0  0.75 1.5 0  1 1.5 0  1.25 1.5 0  1.5 1.5 0  1.75 1.5 0  2 1.5 0  2.25 1.5 0  2.5 1.5 0  2.75 1.5 0  3 1.5 0  3.25 1.5 0  3.5 1.5 0  3.75 1.5 0  4 1.5 0  4.25 1.5 0  4.5 1.5 0  4.75 1.5 0  5 1.5 0  5.25 1.5 0  5.5 1.5 0  5.75 1.5 0  6 1.5 0  6.25 1.5 0  6.5 1.5 0  6.75 1.5 0  7 1.5 0  7.25 1.5 0  7.5 1.5 0  7.75 1.5 0  8 1.5 0  8.25 1.5 0  8.5 1.5 0  8.75 1.5 0  9 1.5 0  9.25 1.5 0  9.5 1.5 0  9.75 1.5 0  10 1.5 0  10.25 1.5 0  10.5 1.5 0  10.75 1.5 0  11 1.5 0  11.25 1.5 0  11.5 1.5 0  11.75 1.5 0  12 1.5 0  12.25 1.5 0  12.5 1.5 0  12.75 1.5 0  13 1.5 0  13.25 1.5 0  13.5 1.5 0  13.75 1.5 0  14 1.5 0  14.25 1.5 0  14.5 1.5 0  14.75 1.5 0  15 1.5 0  15.25 1.5 0  15.5 1.5 0  15.75 1.5 0  16 1.5 0  16.25 1.5 0  16.5 1.5 0  16.75 1.5 0  17 1.5 0  17.25 1.5 0  17.5 1.5 0  17.75 1.5 0  18 1.5 0  18.25 1.5 0  18.5 1.5 0  18.75 1.5 0  19 1.5 0  19.25 1.5 0  19.5 1.5 0  19.75 1.5 0  20 1.5 0  20.25 1.5 0  20.5 1.5 0  20.75 1.5 0  21 1.5 0  21.25 1.5 0  21.5 1.5 0  21.75 1.5 0  22 1.5 0  22.25 1.5 0  22.5 1.5 0  22.75 1.5 0  23 1.5 0  23.25 1.5 0  23.5 1.5 0  23.75 1.5 0  24 1.5 0  24.25 1.5 0  24.5 1.5 0  24.75 1.5 0  25 1.5 0  0 1.75 0  0.25 1.75 0  0.5 1.75 0  0.75 1.75 0  1 1.75 0  1.25 1.75 0  1.5 1.75 0  1.75 1.75 0  2 1.75 0  2.25 1.75 0  2.5 1.75 0  2.75 1.75 0  3 1.75 0  3.25 1.75 0  3.5 1.75 0  3.75 1.75 0  4 1.75 0  4.25 1.75 0  4.5 1.75 0  4.75 1.75 0  5 1.75 0  5.25 1.75 0  5.5 1.75 0  5.75 1.75 0  6 1.75 0  6.25 1.75 0  6.5 1.75 0  6.75 1.75 0  7 1.75 0  7.25 1.75 0  7.5 1.75 0  7.75 1.75 0  8 1.75 0  8.25 1.75 0  8.5 1.75 0  8.75 1.75 0  9 1.75 0  9.25 1.75 0  9.5 1.75 0  9.75 1.75 0  10 1.75 0  10.25 1.75 0  10.5 1.75 0  10.75 1.75 0  11 1.75 0  11.25 1.75 0  11.5 1.75 0  11.75 1.75 0  12 1.75 0  12.25 1.75 0  12.5 1.75 0  12.75 1.75 0  13 1.75 0  13.25 1.75 0  13.5 1.75 0  13.75 1.75 0  14 1.75 0  14.25 1.75 0  14.5 1.75 0  14.75 1.75 0  15 1.75 0  15.25 1.75 0  15.5 1.75 0  15.75 1.75 0  16 1.75 0  16.25 1.75 0  16.5 1.75 0  16.75 1.75 0  17 1.75 0  17.25 1.75 0  17.5 1.75 0  17.75 1.75 0  18 1.75 0  18.25 1.75 0  18.5 1.75 0  18.75 1.75 0  19 1.75 0  19.25 1.75 0  19.5 1.75 0  19.75 1.75 0  20 1.75 0  20.25 1.75 0  20.5 1.75 0  20.75 1.75 0  21 1.75 0  21.25 1.75 0  21.5 1.75 0  21.75 1.75 0  22 1.75 0  22.25 1.75 0  22.5 1.75 0  22.75 1.75 0  23 1.75 0  23.25 1.75 0  23.5 1.75 0  23.75 1.75 0  24 1.75 0  24.25 1.75 0  24.5 1.75 0  24.75 1.75 0  25 1.75 0  0 2 0  0.25 2 0  0.5 2 0  0.75 2 0  1 2 0  1.25 2 0  1.5 2 0  1.75 2 0  2 2 0  2.25 2 0  2.5 2 0  2.75 2 0  3 2 0  3.25 2 0  3.5 2 0  3.75 2 0  4 2 0  4.25 2 0  4.5 2 0  4.75 2 0  5 2 0  5.25 2 0  5.5 2 0  5.75 2 0  6 2 0  6.25 2 0  6.5 2 0  6.75 2 0  7 2 0  7.25 2 0  7.5 2 0  7.75 2 0  8 2 0  8.25 2 0  8.5 2 0  8.75 2 0  9 2 0  9.25 2 0  9.5 2 0  9.75 2 0  10 2 0  10.25 2 0  10.5 2 0  10.75 2 0  11 2 0  11.25 2 0 
[...]
<PointData  Scalars="f_26"> 
<DataArray  type="Float64"  Name="f_26"  format="ascii">9.9995355472671421e-01  9.9995011305608139e-01  9.9994059045710570e-01  9.9992357832797973e-01  9.9989684528618084e-01  9.9985695380612838e-01  9.9979879614030154e-01  9.9971493433862391e-01  9.9959464751512317e-01  9.9942256203289215e-01  9.9917669014527499e-01  9.9882562955056686e-01  9.9832457333842284e-01  9.9760963643285039e-01  9.9658980748967563e-01  9.9513556906757006e-01  9.9306287999273213e-01  9.9011077839116557e-01  9.8591036756003703e-01  9.7994248588598354e-01  9.7148118357078428e-01  9.5952077690287907e-01  9.4268680040904429e-01  9.1913753408449783e-01  8.8647584116455769e-01  8.4171402914590965e-01  7.8136783629377837e-01  7.0178955557761746e-01  5.9985242828946106e-01  4.7400949626519107e-01  3.2551907363925858e-01  1.5931414119475837e-01  -1.6148597270797510e-02  -1.9037927004633270e-01  -3.5322802017649690e-01  -4.9707985174700065e-01  -6.1795289635046136e-01  -7.1531662959441777e-01  -7.9109994466947264e-01  -8.4851872725966460e-01  -8.9113604002918589e-01  -9.2228262734492072e-01  -9.4478790828559844e-01  -9.6091466933120739e-01  -9.7240144024699893e-01  -9.8054794459230876e-01  -9.8630765889396987e-01  -9.9037089271040313e-01  -9.9323282883162656e-01  -9.9524637928071003e-01  -9.9666191269678162e-01  -9.9765647698108473e-01  -9.9835498592718042e-01  -9.9884542858936753e-01  -9.9918971344039109e-01  -9.9943136352371587e-01  -9.9960095890634226e-01  -9.9971997691003411e-01  -9.9980349734375640e-01  -9.9986210597320924e-01  -9.9990323274469173e-01  -9.9993209206471600e-01  -9.9995234319560344e-01  -9.9996655393972878e-01  -9.9997652613774712e-01  -9.9998352412826197e-01  -9.9998843508126600e-01  -9.9999188151202134e-01  -9.9999430023349523e-01  -9.9999599775636328e-01  -9.9999718916168057e-01  -9.9999802537643134e-01  -9.9999861231169929e-01  -9.9999902429117438e-01  -9.9999931347346538e-01  -9.9999951646347141e-01  -9.9999965895145981e-01  -9.9999975896827553e-01  -9.9999982916954477e-01  -9.9999987843855509e-01  -9.9999991301106117e-01  -9.9999993726463199e-01  -9.9999995427259947e-01  -9.9999996619282538e-01  -9.9999997454054912e-01  -9.9999998037988980e-01  -9.9999998445825822e-01  -9.9999998730070305e-01  -9.9999998927613643e-01  -9.9999999064382095e-01  -9.9999999158600261e-01  -9.9999999223081659e-01  -9.9999999266836381e-01  -9.9999999296198994e-01  -9.9999999315619292e-01  -9.9999999328215561e-01  -9.9999999336159795e-01  -9.9999999340941736e-01  -9.9999999343538482e-01  -9.9999999344484092e-01  -9.9999999343725965e-01  9.9995306379260551e-01  9.9994994568511053e-01  9.9994045615320548e-01  9.9992339857744705e-01  9.9989658193406061e-01  9.9985656950936974e-01  9.9979824168723752e-01  9.9971414056746821e-01  9.9959351635426452e-01  9.9942095459018954e-01  9.9917441030000331e-01  9.9882240133599398e-01  9.9832001006174065e-01  9.9760319918953078e-01  9.9658075079401343e-01  9.9512287233903207e-01  9.9304516680475285e-01  9.9008623298679743e-01  9.8587667426999548e-01  9.7989684854740322e-01  9.7142053867040845e-01  9.5944240641260270e-01  9.4258967856789533e-01  9.1902486760170554e-01  8.8635924520805354e-01  8.4161930146213326e-01  7.8134085113777640e-01  7.0189811523532752e-01  6.0017707357385031e-01  4.7461716099415463e-01  3.2642331524809060e-01  1.6044307967460197e-01  -1.4947016902899480e-02  -1.8928506289963898e-01  -3.5237898963756303e-01  -4.9652888121934896e-01  -6.1767281461023638e-01  -7.1523590876691678e-01  -7.9114011616594360e-01  -8.4861666709918238e-01  -8.9125033591721969e-01  -9.2239064162610873e-01  -9.4487987245506666e-01  -9.6098828031905070e-01  -9.7245806489110354e-01  -9.8059035129495309e-01  -9.8633883352465623e-01  -9.9039351184288871e-01  -9.9324908713871773e-01  -9.9525798635255103e-01  -9.9667015802301040e-01  -9.9766231265575578e-01  -9.9835910474199385e-01  -9.9884832952606606e-01  -9.9919175327755050e-01  -9.9943279601833512e-01  -9.9960196384232969e-01  -9.9972068129393576e-01  -9.9980399070155024e-01  -9.9986245130457341e-01  -9.9990347432388349e-01  -9.9993226097321752e-01  -9.9995246123419568e-01  -9.9996663638836292e-01  -9.9997658369915277e-01  -9.9998356429483359e-01  -9.9998846309530365e-01  -9.9999190103969815e-01  -9.9999431383754345e-01  -9.9999600722737891e-01  -9.9999719575020340e-01  -9.9999802995543485e-01  -9.9999861549030511e-01  -9.9999902649419625e-01  -9.9999931499702777e-01  -9.9999951751388416e-01  -9.9999965967237703e-01  -9.9999975945966302e-01  -9.9999982950092126e-01  -9.9999987865823148e-01  -9.9999991315258618e-01  -9.9999993735128490e-01  -9.9999995432052291e-01  -9.9999996621320619e-01  -9.9999997454113820e-01  -9.9999998036605897e-01  -9.9999998443373583e-01  -9.9999998726808537e-01  -9.9999998923724231e-01  -9.9999999059993883e-01  -9.9999999153806085e-01  -9.9999999217950164e-01  -9.9999999261420169e-01  -9.9999999290540242e-01  -9.9999999309753640e-01  -9.9999999322175070e-01  -9.9999999329975808e-01  -9.9999999334650480e-01  -9.9999999337199974e-01  -9.9999999338262968e-01  -9.9999999338271162e-01  9.9995289509415652e-01  9.9994985231355260e-01  9.9994039479233265e-01  9.9992333515239806e-01  9.9989649664812830e-01  9.9985644815815888e-01  9.9979807023598610e-01  9.9971390224435419e-01  9.9959318989199808e-01  9.9942051304547985e-01  9.9917382047667280e-01  9.9882162436463695e-01  9.9831900440553689e-01  9.9760192854734042e-01  9.9657920148616708e-01  9.9512108847894432e-01  9.9304331799835055e-01  9.9008474019169534e-01  9.8587643723272711e-01  9.7989964577357136e-01  9.7142970988549648e-01  9.5946397397307248e-01  9.4263409806600307e-01  9.1910956265582444e-01  8.8651185798567800e-01  8.4188098847691506e-01  7.8176780008292557e-01  7.0255792017068852e-01  6.0113579112882098e-01  4.7591515940216678e-01  3.2804554908711214e-01  1.6229963598456562e-01  -1.3011533343007923e-02  -1.8744922450678153e-01  -3.5078953929853424e-01  -4.9526371306266737e-01  -6.1673769040930904e-01  -7.1458677436964890e-01  -7.9071204455409649e-01  -8.4834561212398540e-01  -8.9108396586207261e-01  -9.2229084594760724e-01  -9.4482096398871163e-01  -9.6095385722216353e-01  -9.7243804813968171e-01  -9.8057871298876353e-01  -9.8633203597135388e-01  -9.9038950486039035e-01  -9.9324669175525548e-01  -9.9525652712257451e-01  -9.9666924806695412e-01  -9.9766172968843247e-01  -9.9835872020628424e-01  -9.9884806829775707e-01  -9.9919157081136045e-01  -9.9943266538897424e-01  -9.9960186838235132e-01  -9.9972061039386684e-01  -9.9980393739786766e-01  -9.9986241088073147e-01  -9.9990344348768467e-01  -9.9993223736412862e-01  -9.9995244312128129e-01  -9.9996662247976809e-01  -9.9997657301801823e-01  -9.9998355609568990e-01  -9.9998845680583870e-01  -9.9999189621896378e-01  -9.9999431014519435e-01  -9.9999600440058234e-01  -9.9999719358605532e-01  -9.9999802829743867e-01  -9.9999861421790903e-01  -9.9999902551467235e-01  -9.9999931423915855e-01  -9.9999951692305611e-01  -9.9999965920677114e-01  -9.9999975908730232e-01  -9.9999982919738695e-01  -9.9999987840490101e-01  -9.9999991293527668e-01  -9.9999993715921243e-01  -9.9999995414550391e-01  -9.9999996604904906e-01  -9.9999997438317845e-01  -9.9999998021080594e-01  -9.9999998427860481e-01  -9.9999998711119387e-01  -9.9999998907725607e-01  -9.9999999043595478e-01  -9.9999999136951823e-01  -9.9999999200611422e-01  -9.9999999243590565e-01  -9.9999999272231666e-01  -9.9999999290993247e-01  -9.9999999303003251e-01  -9.9999999310445620e-01  -9.9999999314829480e-01  -9.9999999317177046e-01  -9.9999999318158928e-01  -9.9999999318203947e-01  9.9995288157196616e-01  9.9994986273892139e-01  9.9994043407228028e-01  9.9992340224844123e-01  9.9989659624927585e-01  9.9985659322951459e-01  9.9979828369447798e-01  9.9971422026759282e-01  9.9959366782826520e-01  9.9942123496796742e-01  9.9917491407034675e-01  9.9882328387617025e-01  9.9832152596840429e-01  9.9760576462027561e-01  9.9658504488188659e-01  9.9513000218928649e-01  9.9305693566643460e-01  9.9010557476060523e-01  9.8590835300672630e-01  9.7994857175214312e-01  9.7150469617671309e-01  9.5957870626692943e-01  9.4280895792482511e-01  9.1937419377214058e-01  8.8690787092495482e-01  8.4246378972369451e-01  7.8260553485338680e-01  7.0372449807312731e-01  6.0269498021092849e-01  4.7789558547283961e-01  3.3041322038402443e-01  1.6494251852022829e-01  -1.0271512628311923e-02  -1.8481438502728612e-01  -3.4843280552175709e-01  -4.9329006970981965e-01  -6.1517599385340316e-01  -7.1340702399136191e-01  -7.8985235324299075e-01  -8.4773555367930775e-01  -8.9065894289224179e-01  -9.2199819761555257e-01  -9.4462078751727219e-01  -9.6081731130501713e-01  -9.7234491130448275e-01  -9.8051507340999677e-01  -9.8628842654632354e-01  -9.9035951715548876e-01  -9.9322599398356104e-01  -9.9524218785715401e-01  -9.9665927805203069e-01  -9.9765477402945879e-01  -9.9835385224945983e-01  -9.9884465157142399e-01  -9.9918916632776400e-01  -9.9943096916689766e-01  -9.9960066914870627e-01  -9.9971976080995339e-01  -9.9980333439240110e-01  -9.9986198214562549e-01  -9.9990313816545817e-01  -9.9993201960027855e-01  -9.9995228758394206e-01  -9.9996651123606195e-01  -9.9997649334970806e-01  -9.9998349896749306e-01  -9.9998841578871533e-01  -9.9999186673150819e-01  -9.9999428891803299e-01  -9.9999598909749399e-01  -9.9999718253547798e-01  -9.9999802030188534e-01  -9.9999860841847799e-01  -9.9999902129458340e-01  -9.9999931115498197e-01  -9.9999951465561987e-01  -9.9999965752607378e-01  -9.9999975782740635e-01  -9.9999982823843492e-01  -9.9999987766021969e-01  -9.9999991234212138e-01  -9.9999993667211717e-01  -9.9999995373150175e-01  -9.9999996568423077e-01  -9.9999997405021579e-01  -9.9999997989716671e-01  -9.9999998397526435e-01  -9.9999998681170621e-01  -9.9999998877708185e-01  -9.9999999013197438e-01  -9.9999999105967907e-01  -9.9999999168917308e-01  -9.9999999211124024e-01  -9.9999999238978654e-01  -9.9999999256977679e-01  -9.9999999268279405e-01  -9.9999999275092677e-01  -9.9999999278947715e-01  -9.9999999280884144e-01  -9.9999999281580532e-01  -9.9999999281439289e-01  9.9995297763254243e-01  9.9994997431877619e-01  9.9994058193725066e-01  9.9992360666875046e-01  9.9989688468786342e-01  9.9985700629399199e-01  9.9979888163196040e-01  9.9971509201472775e-01  9.9959494442990937e-01  9.9942310958653402e-01  9.9917767176688499e-01  9.9882734589319466e-01  9.9832751557747812e-01  9.9761460505253241e-01  9.9659810492439482e-01  9.9514931234323478e-01  9.9308550806248341e-01  9.9014787393884618e-01  9.8597098213084178e-01  9.8004125774869177e-01  9.7164167078588737e-01  9.5978057127805849e-01  9.4310505718795279e-01  9.1980532969213058e-01  8.8752880725696515e-01  8.4334428518343163e-01  7.8382767945644405e-01  7.0537327257854077e-01  6.0483931681751479e-01  4.8056046934535590e-01  3.3355038189815006e-01  1.6841500298100623e-01  -6.6752226020409793e-03  -1.8133448595393101e-01  -3.4527905472321402e-01  -4.9059759650382850e-01  -6.1299300852866312e-01  -7.1171081860699137e-01  -7.8857784542486498e-01  -8.4680191449498565e-01  -8.8998753291173904e-01  -9.2152155577759876e-01  -9.4428530060396920e-01  -9.6058242694172546e-01  -9.7218094283898904e-01  -9.8040075281046868e-01  -9.8620872881221888e-01  -9.9030391995147726e-01  -9.9318716552978314e-01  -9.9521503250346788e-01  -9.9664025727808148e-01  -9.9764142994762739e-01  -9.9834447591388731e-01  -9.9883805309991891e-01  -9.9918451589309998e-01  -9.9942768704424911e-01  -9.9959834963053407e-01  -9.9971811948566147e-01  -9.9980217155547779e-01  -9.9986115734704162e-01  -9.9990255248392468e-01  -9.9993160326552299e-01  -9.9995199132081558e-01  -9.9996630020020505e-01  -9.9997634287178716e-01  -9.9998339156195359e-01  -9.9998833904822648e-01  -9.9999181184279529e-01  -9.9999424961434846e-01  -9.9999596091835419e-01  -9.9999716230292346e-01  -9.9999800574951969e-01  -9.9999859792843615e-01  -9.9999901371083777e-01  -9.9999930565070072e-01  -9.9999951063883763e-01  -9.9999965457254802e-01  -9.9999975563278176e-01  -9.9999982658413444e-01  -9.9999987638910326e-01  -9.9999991134110211e-01  -9.9999993585973690e-01  -9.9999995304904377e-01  -9.9999996508936018e-01  -9.9999997351242387e-01  -9.9999997939450636e-01  -9.9999998349200869e-01  -9.9999998633666776e-01  -9.9999998830240489e-01  -9.9999998965226533e-01  -9.9999999057137900e-01  -9.9999999119010363e-01  -9.9999999160027286e-01  -9.9999999186659971e-01  -9.9999999203467604e-01  -9.9999999213657664e-01  -9.9999999219477664e-01  -9.9999999222487845e-01  -9.9999999223749225e-01  -9.9999999223950364e-01  -9.9999999223486391e-01  9.9995316839882542e-01  9.9995018231931854e-01  9.9994083943628975e-01  9.9992395050866667e-01  9.9989736307821919e-01  9.9985768678117237e-01  9.9979986131422161e-01  9.9971651177847198e-01  9.9959700951354258e-01  9.9942611961797934e-01  9.9918206477268734e-01  9.9883376282605973e-01  9.9833689492173705e-01  9.9762832142623059e-01  9.9661817181246348e-01  9.9517867778332492e-01  9.9312848387446062e-01  9.9021075423745786e-01  9.8606292463550005e-01  9.8017551843780104e-01  9.7183728971987937e-01  9.6006458494731262e-01  9.4351522154375056e-01  9.2039311137970115e-01  8.8836194417655634e-01  8.4450744521470700e-01  7.8541870427209759e-01  7.0749162898500484e-01  6.0756387560958436e-01  4.8391741470685812e-01  3.3747982152018069e-01  1.7275341050309090e-01  -2.1790766611479427e-03  -1.7696726476556782e-01  -3.4129461635961983e-01  -4.8716457974830818e-01  -6.1017827979734240e-01  -7.0949585001427684e-01  -7.8689077613761804e-01  -8.4554868265705574e-01  -8.8907373870358086e-01  -9.2086415811400835e-01  -9.4381679240885785e-01  -9.6025065578120794e-01  -9.7194696588309715e-01  -9.8023615146659870e-01  -9.8609308347411773e-01  -9.9022270923504574e-01  -9.9313013165628028e-01  -9.9517495972083203e-01  -9.9661208198958495e-01  -9.9762160307126135e-01  -9.9833051080106638e-01  -9.9882820715383114e-01  -9.9917756725209372e-01  -9.9942277829635029e-01  -9.9959487855071982e-01  -9.9971566266324308e-01  -9.9980043099298255e-01  -9.9985992309561389e-01  -9.9990167647598238e-01  -9.9993098097047839e-01  -9.9995154887120286e-01  -9.9996598534698600e-01  -9.9997611862295488e-01  -9.9998323170358494e-01  -9.9998822498764350e-01  -9.9999173038132250e-01  -9.9999419137438883e-01  -9.9999591923150744e-01  -9.9999713242328880e-01  -9.9999798429658260e-01  -9.9999858249219886e-01  -9.9999900257170837e-01  -9.9999929758062611e-01  -9.9999950476000388e-01  -9.9999965025690507e-01  -9.9999975243054251e-01  -9.9999982417285682e-01  -9.9999987453740291e-01  -9.9999990988277454e-01  -9.9999993467529058e-01  -9.9999995205251413e-01  -9.9999996421888804e-01  -9.9999997272352004e-01  -9.9999997865523316e-01  -9.9999998277953150e-01  -9.9999998563478398e-01  -9.9999998759977182e-01  -9.9999998894112763e-01  -9.9999998984665206e-01  -9.9999999044871080e-01  -9.9999999084066371e-01  -9.9999999108839688e-01  -9.9999999123841243e-01  -9.9999999132349626e-01  -9.9999999136667850e-01  -9.9999999138398710e-01  -9.9999999138634088e-01  -9.9999999138081641e-01  -9.9999999137143936e-01  9.9995344777956241e-01  9.9995048327126124e-01  9.9994120550202237e-01  9.9992443342646120e-01  9.9989803049954828e-01  9.9985863230126448e-01  9.9980121803147382e-01  9.9971847134747727e-01  9.9959984949218683e-01  9.9943024307900008e-01  9.9918805787452292e-01  9.9884247856150665e-01  9.9834957490689613e-01  9.9764677278493108e-01  9.9664502349640971e-01  9.9521775066611196e-01  9.9318532222171596e-01  9.9029338279637813e-01  9.8618291442519113e-01  9.8034946113890897e-01  9.7208878477402771e-01  9.6042681236629024e-01  9.4403406350266361e-01  9.2113052328735390e-01  8.8939875750581732e-01  8.4594391548697345e-01  7.8736994943942940e-01  7.1007413110394779e-01  6.1086976417458183e-01  4.8797737765840571e-01  3.4222428964873991e-01  1.7799155352699672e-01  3.2580067202955206e-03  -1.7167011772140525e-01  -3.3644095583533884e-01  -4.8296014859485553e-01  -6.0670959437299632e-01  -7.0674755120348209e-01  -7.8478228609072398e-01  -8.4397073569368286e-01  -8.8791463134427562e-01  -9.2002425028364099e-01  -9.4321409597030670e-01  -9.5982111973616080e-01  -9.7164225816438088e-01  -9.8002065191853949e-01  -9.8594096109354434e-01  -9.9011543740612251e-01  -9.9305452138051420e-01  -9.9512166815539882e-01  -9.9657451182554313e-01  -9.9759510469065227e-01  -9.9831181071229314e-01  -9.9881500171703841e-01  -9.9916823536186972e-01  -9.9941617884430833e-01  -9.9959020792576103e-01  -9.9971235459505470e-01  -9.9979808618479182e-01  -9.9985825978478415e-01  -9.9990049568742179e-01  -9.9993014208399567e-01  -9.9995095243048693e-01  -9.9996556095532307e-01  -9.9997581641414923e-01  -9.9998301632743747e-01  -9.9998807136532253e-01  -9.9999162070745429e-01  -9.9999411299803875e-01  -9.9999586315723576e-01  -9.9999709225002731e-01  -9.9999795546588743e-01  -9.9999856175528667e-01  -9.9999898761132611e-01  -9.9999928674258232e-01  -9.9999949686242262e-01  -9.9999964445460898e-01  -9.9999974811856529e-01  -9.9999982091775041e-01  -9.9999987202830143e-01  -9.9999990789651083e-01  -9.9999993305151569e-01  -9.9999995067594138e-01  -9.9999996300661509e-01  -9.9999997161597098e-01  -9.9999997760968484e-01  -9.9999998176548344e-01  -9.9999998463064355e-01  -9.9999998659048017e-01  -9.9999998791645472e-01  -9.9999998879997076e-01  -9.9999998937611045e-01  -9.9999998974030579e-01  -9.9999998996004158e-01  -9.9999999008306606e-01  -9.9999999014314223e-01  -9.9999999016406571e-01  -9.9999999016245689e-01  -9.9999999014967567e-01  -9.9999999013310348e-01  -9.9999999011694785e-01  9.9995381250303550e-01  9.9995087461903176e-01  9.9994167840397663e-01  9.9992505383893560e-01  9.9989888468906585e-01  9.9985983907666087e-01  9.9980294551200788e-01  9.9972096059231008e-01  9.9960344831951020e-01  9.9943545482928087e-01  9.9919561193406015e-01  9.9885343243408486e-01  9.9836546186605801e-01  9.9766981513260000e-01  9.9667843978532589e-01  9.9526619657004289e-01  9.9325551961355396e-01  9.9039501004967401e-01  9.8632985155050557e-01  9.8056150126378994e-01  9.7239392676374070e-01  9.6086421269358457e-01  9.4465760033229695e-01  9.2201262985298904e-01  8.9063359853800383e-01  8.4764800054180112e-01  7.8967694937534161e-01  7.1311953039468368e-01  6.1476152036408438e-01  4.9275333004214872e-01  3.4780702479607456e-01  1.8416295398553256e-01  9.6774971251120164e-03  -1.6539788051743767e-01  -3.3067404711015447e-01  -4.7794531795285378e-01  -6.0255510485006913e-01  -7.0344152247775360e-01  -7.8223454171669526e-01  -8.4205542610637363e-01  -8.8650136779812150e-01  -9.1899565286845109e-01  -9.4247285238486067e-01  -9.5929069804058531e-01  -9.7126454944586982e-01  -9.7975257966993690e-01  -9.8575111406826277e-01  -9.8998116923819246e-01  -9.9295963175092272e-01  -9.9505462935948386e-01  -9.9652715012560189e-01  -9.9756163781025342e-01  -9.9828815393561821e-01  -9.9879827179206848e-01  -9.9915639780379795e-01  -9.9940779811785929e-01  -9.9958427092061808e-01  -9.9970814607420366e-01  -9.9979510097545377e-01  -9.9985614089502717e-01  -9.9989899069540533e-01  -9.9992907239854567e-01  -9.9995019161663523e-01  -9.9996501944464466e-01  -9.9997543071340278e-01  -9.9998274139770127e-01  -9.9998787523686838e-01  -9.9999148067207400e-01  -9.9999401291502099e-01  -9.9999579154604712e-01  -9.9999704093908814e-01  -9.9999791863468668e-01  -9.9999853525489335e-01  -9.9999896848207592e-01  -9.9999927287150048e-01  -9.9999948673974615e-01  -9.9999963700063055e-01  -9.9999974256041468e-01  -9.9999981670165727e-01  -9.9999986875708735e-01  -9.9999990528503069e-01  -9.9999993089487782e-01  -9.9999994882682974e-01  -9.9999996135909963e-01  -9.9999997009394537e-01  -9.9999997615860348e-01  -9.9999998034645421e-01  -9.9999998321620187e-01  -9.9999998516156152e-01  -9.9999998646022359e-01  -9.9999998730825690e-01  -9.9999998784428046e-01  -9.9999998816644031e-01  -9.9999998834433013e-01  -9.9999998842735394e-01  -9.9999998845058347e-01  -9.9999998843884885e-01  -9.9999998840957849e-01  -9.9999998837474746e-01  -9.9999998834217840e-01