<?xml version="1.0"?>
<VTKFile type="UnstructuredGrid"  version="0.1"  >
<UnstructuredGrid>
<Piece  NumberOfPoints="10201" NumberOfCells="20000">
<Points>
<DataArray  type="Float64"  NumberOfComponents="3"  format="ascii">0 0 0  0.25 0 0  0.5 0 0  0.75 0 0  1 0 0  1.25 0 0  1.5 0 0  1.75 0 0  2 0 0  2.25 0 0  2.5 0 0  2.75 0 0  3 0 0  3.25 0 0  3.5 0 0  3.75 0 0  4 0 0  4.25 0 0  4.5 0 0  4.75 0 0  5 0 0  5.25 0 0  5.5 0 0  5.75 0 0  6 0 0  6.25 0 0  6.5 0 0  6.75 0 0  7 0 0  7.25 0 0  7.5 0 0  7.75 0 0  8 0 0  8.25 0 0  8.5 0 0  8.75 0 0  9 0 0  9.25 0 0  9.5 0 0  9.75 0 0  10 0 0  10.25 0 0  10.5 0 0  10.75 0 0  11 0 0  11.25 0 0  11.5 0 0  11.75 0 0  12 0 0  12.25 0 0  12.5 0 0  12.75 0 0  13 0 0  13.25 0 0  13.5 0 0  13.75 0 0  14 0 0  14.25 0 0  14.5 0 0  14.75 0 0  15 0 0  15.25 0 0  15.5 0 0  15.75 0 0  16 0 0  16.25 0 0  16.5 0 0  16.75 0 0  17 0 0  17.25 0 0  17.5 0 0  17.75 0 0  18 0 0  18.25 0 0  18.5 0 0  18.75 0 0  19 0 0  19.25 0 0  19.5 0 0  19.75 0 0  20 0 0  20.25 0 0  20.5 0 0  20.75 0 0  21 0 0  21.25 0 0  21.5 0 0  21.75 0 0  22 0 0  22.25 0 0  22.5 0 0  22.75 0 0  23 0 0  23.25 0 0  23.5 0 0  23.75 0 0  24 0 0  24.25 0 0  24.5 0 0  24.75 0 0  25 0 0  0 0.25 0  0.25 0.25 0  0.5 0.25 0  0.75 0.25 0  1 0.25 0  1.25 0.25 0  1.5 0.25 0  1.75 0.25 0  2 0.25 0  2.25 0.25 0  2.5 0.25 0  2.75 0.25 0  3 0.25 0  3.25 0.25 0  3.5 0.25 0  3.75 0.25 0  4 0.25 0  4.25 0.25 0  4.5 0.25 0  4.75 0.25 0  5 0.25 0  5.25 0.25 0  5.5 0.25 0  5.75 0.25 0  6 0.25 0  6.25 0.25 0  6.5 0.25 0  6.75 0.25 0  7 0.25 0  7.25 0.25 0  7.5 0.25 0  7.75 0.25 0  8 0.25 0  8.25 0.25 0  8.5 0.25 0  8.75 0.25 0  9 0.25 0  9.25 0.25 0  9.5 0.25 0  9.75 0.25 0  10 0.25 0  10.25 0.25 0  10.5 0.25 0  10.75 0.25 0  11 0.25 0  11.25 0.25 0  11.5 0.25 0  11.75 0.25 0  12 0.25 0  12.25 0.25 0  12.5 0.25 0  12.75 0.25 0  13 0.25 0  13.25 0.25 0  13.5 0.25 0  13.75 0.25 0  14 0.25 0  14.25 0.25 0  14.5 0.25 0  14.75 0.25 0  15 0.25 0  15.25 0.25 0  15.5 0.25 0  15.75 0.25 0  16 0.25 0  16.25 0.25 0  16.5 0.25 0  16.75 0.25 0  17 0.25 0  17.25 0.25 0  17.5 0.25 0  17.75 0.25 0  18 0.25 0  18.25 0.25 0  18.5 0.25 0  18.75 0.25 0  19 0.25 0  19.25 0.25 0  19.5 0.25 0  19.75 0.25 0  20 0.25 0  20.25 0.25 0  20.5 0.25 0  20.75 0.25 0  21 0.25 0  21.25 0.25 0  21.5 0.25 0  21.75 0.25 0  22 0.25 0  22.25 0.25 0  22.5 0.25 0  22.75 0.25 0  23 0.25 0  23.25 0.25 0  23.5 0.25 0  23.75 0.25 0  24 0.25 0  24.25 0.25 0  24.5 0.25 0  24.75 0.25 0  25 0.25 0  0 0.5 0  0.25 0.5 0  0.5 0.5 0  0.75 0.5 0  1 0.5 0  1.25 0.5 0  1.5 0.5 0  1.75 0.5 0  2 0.5 0  2.25 0.5 0  2.5 0.5 0  2.75 0.5 0  3 0.5 0  3.25 0.5 0  3.5 0.5 0  3.75 0.5 0  4 0.5 0  4.25 0.5 0  4.5 0.5 0  4.75 0.5 0  5 0.5 0  5.25 0.5 0  5.5 0.5 0  5.75 0.5 0  6 0.5 0  6.25 0.5 0  6.5 0.5 0  6.75 0.5 0  7 0.5 0  7.25 0.5 0  7.5 0.5 0  7.75 0.5 0  8 0.5 0  8.25 0.5 0  8.5 0.5 0  8.75 0.5 0  9 0.5 0  9.25 0.5 0  9.5 0.5 0  9.75 0.5 0  10 0.5 0  10.25 0.5 0  10.5 0.5 0  10.75 0.5 0  11 0.5 0  11.25 0.5 0  11.5 0.5 0  11.75 0.5 0  12 0.5 0  12.25 0.5 0  12.5 0.5 0  12.75 0.5 0  13 0.5 0  13.25 0.5 0  13.5 0.5 0  13.75 0.5 0  14 0.5 0  14.25 0.5 0  14.5 0.5 0  14.75 0.5 0  15 0.5 0  15.25 0.5 0  15.5 0.5 0  15.75 0.5 0  16 0.5 0  16.25 0.5 0  16.5 0.5 0  16.75 0.5 0  17 0.5 0  17.25 0.5 0  17.5 0.5 0  17.75 0.5 0  18 0.5 0  18.25 0.5 0  18.5 0.5 0  18.75 0.5 0  19 0.5 0  19.25 0.5 0  19.5 0.5 0  19.75 0.5 0  20 0.5 0  20.25 0.5 0  20.5 0.5 0  20.75 0.5 0  21 0.5 0  21.25 0.5 0  21.5 0.5 0  21.75 0.5 0  22 0.5 0  22.25 0.5 0  22.5 0.5 0  22.75 0.5 0  23 0.5 0  23.25 0.5 0  23.5 0.5 0  23.75 0.5 0  24 0.5 0  24.25 0.5 0  24.5 0.5 0  24.75 0.5 0  25 0.5 0  0 0.75 0  0.25 0.75 0  0.5 0.75 0  0.75 0.75 0  1 0.75 0  1.25 0.75 0  1.5 0.75 0  1.75 0.75 0  2 0.75 0  2.25 0.75 0  2.5 0.75 0  2.75 0.75 0  3 0.75 0  3.25 0.75 0  3.5 0.75 0  3.75 0.75 0  4 0.75 0  4.25 0.75 0  4.5 0.75 0  4.75 0.75 0  5 0.75 0  5.25 0.75 0  5.5 0.75 0  5.75 0.75 0  6 0.75 0  6.25 0.75 0  6.5 0.75 0  6.75 0.75 0  7 0.75 0  7.25 0.75 0  7.5 0.75 0  7.75 0.75 0  8 0.75 0  8.25 0.75 0  8.5 0.75 0  8.75 0.75 0  9 0.75 0  9.25 0.75 0  9.5 0.75 0  9.75 0.75 0  10 0.75 0  10.25 0.75 0  10.5 0.75 0  10.75 0.75 0  11 0.75 0  11.25 0.75 0  11.5 0.75 0  11.75 0.75 0  12 0.75 0  12.25 0.75 0  12.5 0.75 0  12.75 0.75 0  13 0.75 0  13.25 0.75 0  13.5 0.75 0  13.75 0.75 0  14 0.75 0  14.25 0.75 0  14.5 0.75 0  14.75 0.75 0  15 0.75 0  15.25 0.75 0  15.5 0.75 0  15.75 0.75 0  16 0.75 0  16.25 0.75 0  16.5 0.75 0  16.75 0.75 0  17 0.75 0  17.25 0.75 0  17.5 0.75 0  17.75 0.75 0  18 0.75 0  18.25 0.75 0  18.5 0.75 0  18.75 0.75 0  19 0.75 0  19.25 0.75 0  19.5 0.75 0  19.75 0.75 0  20 0.75 0  20.25 0.75 0  20.5 0.75 0  20.75 0.75 0  21 0.75 0  21.25 0.75 0  21.5 0.75 0  21.75 0.75 0  22 0.75 0  22.25 0.75 0  22.5 0.75 0  22.75 0.75 0  23 0.75 0  23.25 0.75 0  23.5 0.75 0  23.75 0.75 0  24 0.75 0  24.25 0.75 0  24.5 0.75 0  24.75 0.75 0  25 0.75 0  0 1 0  0.25 1 0  0.5 1 0  0.75 1 0  1 1 0  1.25 1 0  1.5 1 0  1.75 1 0  2 1 0  2.25 1 0  2.5 1 0  2.75 1 0  3 1 0  3.25 1 0  3.5 1 0  3.75 1 0  4 1 0  4.25 1 0  4.5 1 0  4.75 1 0  5 1 0  5.25 1 0  5.5 1 0  5.75 1 0  6 1 0  6.25 1 0  6.5 1 0  6.75 1 0  7 1 0  7.25 1 0  7.5 1 0  7.75 1 0  8 1 0  8.25 1 0  8.5 1 0  8.75 1 0  9 1 0  9.25 1 0  9.5 1 0  9.75 1 0  10 1 0  10.25 1 0  10.5 1 0  10.75 1 0  11 1 0  11.25 1 0  11.5 1 0  11.75 1 0  12 1 0  12.25 1 0  12.5 1 0  12.75 1 0  13 1 0  13.25 1 0  13.5 1 0  13.75 1 0  14 1 0  14.25 1 0  14.5 1 0  14.75 1 0  15 1 0  15.25 1 0  15.5 1 0  15.75 1 0  16 1 0  16.25 1 0  16.5 1 0  16.75 1 0  17 1 0  17.25 1 0  17.5 1 0  17.75 1 0  18 1 0  18.25 1 0  18.5 1 0  18.75 1 0  19 1 0  19.25 1 0  19.5 1 0  19.75 1 0  20 1 0  20.25 1 0  20.5 1 0  20.75 1 0  21 1 0  21.25 1 0  21.5 1 0  21.75 1 0  22 1 0  22.25 1 0  22.5 1 0  22.75 1 0  23 1 0  23.25 1 0  23.5 1 0  23.75 1 0  24 1 0  24.25 1 0  24.5 1 0  24.75 1 0  25 1 0  0 1.25 0  0.25 1.25 0  0.5 1.25 0  0.75 1.25 0  1 1.25 0  1.25 1.25 0  1.5 1.25 0  1.75 1.25 0  2 1.25 0  2.25 1.25 0  2.5 1.25 0  2.75 1.25 0  3 1.25 0  3.25 1.25 0  3.5 1.25 0  3.75 1.25 0  4 1.25 0  4.25 1.25 0  4.5 1.25 0  4.75 1.25 0  5 1.25 0  5.25 1.25 0  5.5 1.25 0  5.75 1.25 0  6 1.25 0  6.25 1.25 0  6.5 1.25 0  6.75 1.25 0  7 1.25 0  7.25 1.25 0  7.5 1.25 0  7.75 1.25 0  8 1.25 0  8.25 1.25 0  8.5 1.25 0  8.75 1.25 0  9 1.25 0  9.25 1.25 0  9.5 1.25 0  9.75 1.25 0  10 1.25 0  10.25 1.25 0  10.5 1.25 0  10.75 1.25 0  11 1.25 0  11.25 1.25 0  11.5 1.25 0  11.75 1.25 0  12 1.25 0  12.25 1.25 0  12.5 1.25 0  12.75 1.25 0  13 1.25 0  13.25 1.25 0  13.5 1.25 0  13.75 1.25 0  14 1.25 0  14.25 1.25 0  14.5 1.25 0  14.75 1.25 0  15 1.25 0  15.25 1.25 0  15.5 1.25 0  15.75 1.25 0  16 1.25 0  16.25 1.25 0  16.5 1.25 0  16.75 1.25 0  17 1.25 0  17.25 1.25 0  17.5 1.25 0  17.75 1.25 0  18 1.25 0  18.25 1.25 0  18.5 1.25 0  18.75 1.25 0  19 1.25 0  19.25 1.25 0  19.5 1.25 0  19.75 1.25 0  20 1.25 0  20.25 1.25 0  20.5 1.25 0  20.75 1.25 0  21 1.25 0  21.25 1.25 0  21.5 1.25 0  21.75 1.25 0  22 1.25 0  22.25 1.25 0  22.5 1.25 0  22.75 1.25 0  23 1.25 0  23.25 1.25 0  23.5 1.25 0  23.75 1.25 0  24 1.25 0  24.25 1.25 0  24.5 1.25 0  24.75 1.25 0  25 1.25 0  0 1.5 0  0.25 1.5 0  0.5 1.5 0  0.75 1.5 0  1 1.5 0  1.25 1.5 0  1.5 1.5 0  1.75 1.5 0  2 1.5 0  2.25 1.5 0  2.5 1.5 0  2.75 1.5 0  3 1.5 0  3.25 1.5 0  3.5 1.5 0  3.75 1.5 0  4 1.5 0  4.25 1.5 0  4.5 1.5 0  4.75 1.5 0  5 1.5 0  5.25 1.5 0  5.5 1.5 0  5.75 1.5 0  6 1.5 0  6.25 1.5 0  6.5 1.5 0  6.75 1.5 0  7 1.5 0  7.25 1.5 0  7.5 1.5 0  7.75 1.5 0  8 1.5 0  8.25 1.5 0  8.5 1.5 0  8.75 1.5 0  9 1.5 0  9.25 1.5 0  9.5 1.5 0  9.75 1.5 0  10 1.5 0  10.25 1.5 0  10.5 1.5 0  10.75 1.5 0  11 1.5 0  11.25 1.5 0  11.5 1.5 0  11.75 1.5 0  12 1.5 0  12.25 1.5 0  12.5 1.5 0  12.75 1.5 0  13 1.5 0  13.25 1.5 0  13.5 1.5 0  13.75 1.5 0  14 1.5 0  14.25 1.5 0  14.5 1.5 0  14.75 1.5 0  15 1.5 0  15.25 1.5 0  15.5 1.5 0  15.75 1.5 0  16 1.5 0  16.25 1.5 0  16.5 1.5 0  16.75 1.5 0  17 1.5 0  17.25 1.5 0  17.5 1.5 0  17.75 1.5 0  18 1.5 0  18.25 1.5 0  18.5 1.5 0  18.75 1.5 0  19 1.5 0  19.25 1.5 0  19.5 1.5 0  19.75 1.5 0  20 1.5 0  20.25 1.5 0  20.5 1.5 0  20.75 1.5 0  21 1.5 0  21.25 1.5 0  21.5 1.5 0  21.75 1.5 0  22 1.5 0  22.25 1.5 0  22.5 1.5 0  22.75 1.5 0  23 1.5 0  23.25 1.5 0  23.5 1.5 0  23.75 1.5 0  24 1.5 0  24.25 1.5 0  24.5 1.5 0  24.75 1.5 0  25 1.5 0  0 1.75 0  0.25 1.75 0  0.5 1.75 0  0.75 1.75 0  1 1.75 0  1.25 1.75 0  1.5 1.75 0  1.75 1.75 0  2 1.75 0  2.25 1.75 0  2.5 1.75 0  2.75 1.75 0  3 1.75 0  3.25 1.75 0  3.5 1.75 0  3.75 1.75 0  4 1.75 0  4.25 1.75 0  4.5 1.75 0  4.75 1.75 0  5 1.75 0  5.25 1.75 0  5.5 1.75 0  5.75 1.75 0  6 1.75 0  6.25 1.75 0  6.5 1.75 0  6.75 1.75 0  7 1.75 0  7.25 1.75 0  7.5 1.75 0  7.75 1.75 0  8 1.75 0  8.25 1.75 0  8.5 1.75 0  8.75 1.75 0  9 1.75 0  9.25 1.75 0  9.5 1.75 0  9.75 1.75 0  10 1.75 0  10.25 1.75 0  10.5 1.75 0  10.75 1.75 0  11 1.75 0  11.25 1.75 0  11.5 1.75 0  11.75 1.75 0  12 1.75 0  12.25 1.75 0  12.5 1.75 0  12.75 1.75 0  13 1.75 0  13.25 1.75 0  13.5 1.75 0  13.75 1.75 0  14 1.75 0  14.25 1.75 0  14.5 1.75 0  14.75 1.75 0  15 1.75 0  15.25 1.75 0  15.5 1.75 0  15.75 1.75 0  16 1.75 0  16.25 1.75 0  16.5 1.75 0  16.75 1.75 0  17 1.75 0  17.25 1.75 0  17.5 1.75 0  17.75 1.75 0  18 1.75 0  18.25 1.75 0  18.5 1.75 0  18.75 1.75 0  19 1.75 0  19.25 1.75 0  19.5 1.75 0  19.75 1.75 0  20 1.75 0  20.25 1.75 0  20.5 1.75 0  20.75 1.75 0  21 1.75 0  21.25 1.75 0  21.5 1.75 0  21.75 1.75 0  22 1.75 0  22.25 1.75 0  22.5 1.75 0  22.75 1.75 0  23 1.75 0  23.25 1.75 0  23.5 1.75 0  23.75 1.75 0  24 1.75 0  24.25 1.75 0  24.5 1.75 0  24.75 1.75 0  25 1.75 0  0 2 0  0.25 2 0  0.5 2 0  0.75 2 0  1 2 0  1.25 2 0  1.5 2 0  1.75 2 0  2 2 0  2.25 2 0  2.5 2 0  2.75 2 0  3 2 0  3.25 2 0  3.5 2 0  3.75 2 0  4 2 0  4.25 2 0  4.5 2 0  4.75 2 0  5 2 0  5.25 2 0  5.5 2 0  5.75 2 0  6 2 0  6.25 2 0  6.5 2 0  6.75 2 0  7 2 0  7.25 2 0  7.5 2 0  7.75 2 0  8 2 0  8.25 2 0  8.5 2 0  8.75 2 0  9 2 0  9.25 2 0  9.5 2 0  9.75 2 0  10 2 0  10.25 2 0  10.5 2 0  10.75 2 0  11 2 0  11.25 2 0 
[...]
<PointData  Scalars="f_23"> 
<DataArray  type="Float64"  Name="f_23"  format="ascii">5.8406661652299474e-01  5.8848096533700134e-01  5.9877412871745606e-01  6.1472493682884999e-01  6.3554034297160200e-01  6.6014499704681551e-01  6.8733985105459960e-01  7.1592512031053945e-01  7.4479830311775042e-01  7.7302345347412993e-01  7.9986935983520024e-01  8.2481884658257087e-01  8.4755521746876872e-01  8.6793369344860472e-01  8.8594557878696323e-01  9.0168144015922536e-01  9.1529756992047673e-01  9.2698804303683324e-01  9.3696312044365493e-01  9.4543371190598591e-01  9.5260104315072380e-01  9.5865045795527082e-01  9.6374829851884569e-01  9.6804094088003989e-01  9.7165524198817810e-01  9.7469983612108113e-01  9.7726687758480035e-01  9.7943395542825262e-01  9.8126600397622965e-01  9.8281710409624101e-01  9.8413211945614798e-01  9.8524814477525091e-01  9.8619576372206685e-01  9.8700012628264477e-01  9.8768186186485785e-01  9.8825784712581632e-01  9.8874184792929853e-01  9.8914505392767682e-01  9.8947652266065689e-01  9.8974354818159016e-01  9.8995196731123702e-01  9.9010641482056305e-01  9.9021053722913321e-01  9.9026717349878224e-01  9.9027850969949749e-01  9.9024621370426114e-01  9.9017155509975252e-01  9.9005551474201225e-01  9.8989888769884515e-01  9.8970238266108690e-01  9.8946672023083382e-01  9.8919273176727807e-01  9.8888145965690677e-01  9.8853425895156966e-01  9.8815289927736694e-01  9.8773966477217123e-01  9.8729744859895674e-01  9.8682983737599284e-01  9.8634117976656532e-01  9.8583663261448073e-01  9.8532217755453211e-01  9.8480460113457302e-01  9.8429143230822191e-01  9.8379083280114099e-01  9.8331143835053192e-01  9.8286215209369532e-01  9.8245189524001242e-01  9.8208932427785622e-01  9.8178252791376119e-01  9.8153872022444177e-01  9.8136394863709520e-01  9.8126283593837871e-01  9.8123837430755234e-01  9.8129178635461511e-01  9.8142246354512197e-01  9.8162798666294337e-01  9.8190422672195032e-01  9.8224551868500742e-01  9.8264489515047149e-01  9.8309436335834544e-01  9.8358520678089378e-01  9.8410829228648866e-01  9.8465436525935768e-01  9.8521431779354929e-01  9.8577941871136410e-01  9.8634149819979544e-01  9.8689308385995134e-01  9.8742748855578522e-01  9.8793885337653664e-01  9.8842215116060750e-01  9.8887315734452885e-01  9.8928839545879954e-01  9.8966506449844516e-01  9.9000095475520544e-01  9.9029435753692607e-01  9.9054397227126534e-01  9.9074881061107600e-01  9.9090808655106311e-01  9.9102104422752257e-01  9.9108652149538745e-01  9.9110135326613646e-01  5.8821703087593380e-01  5.9177817768416818e-01  6.0174381460737103e-01  6.1745734685374842e-01  6.3803704564862795e-01  6.6239516258316222e-01  6.8933777097269211e-01  7.1767352970339648e-01  7.4630772345180207e-01  7.7431032932169153e-01  8.0095396447828859e-01  8.2572337684963304e-01  8.4830225422092376e-01  8.6854507023053285e-01  8.8644162820690142e-01  9.0208055451506319e-01  9.1561600409172306e-01  9.2723989221680014e-01  9.3716041544924067e-01  9.4558658644180615e-01  9.5271793851354791e-01  9.5873834038387540e-01  9.6381287242518032e-01  9.6808684751906748e-01  9.7168623786498109e-01  9.7471894880761167e-01  9.7727653887566790e-01  9.7943611315825796e-01  9.8126221458252849e-01  9.8280860832914807e-01  9.8411990367770052e-01  9.8523299014769194e-01  9.8617828535980945e-01  9.8698080417482204e-01  9.8766106510512519e-01  9.8823585273140502e-01  9.8871885530265646e-01  9.8912119581555791e-01  9.8945187329776518e-01  9.8971812916746815e-01  9.8992575165769536e-01  9.9007932952008737e-01  9.9018246462999671e-01  9.9023795172798190e-01  9.9024793234841868e-01  9.9021402898272115e-01  9.9013746467048447e-01  9.9001917246835525e-01  9.8985989857164114e-01  9.8966030221411250e-01  9.8942105480396647e-01  9.8914294002799674e-01  9.8882695583683855e-01  9.8847441828676863e-01  9.8808706614805308e-01  9.8766716400743892e-01  9.8721760033158179e-01  9.8674197569003042e-01  9.8624467516729675e-01  9.8573091806377400e-01  9.8520677746118313e-01  9.8467916228671792e-01  9.8415575531484512e-01  9.8364490221663470e-01  9.8315544934514565e-01  9.8269653136309942e-01  9.8227731387449002e-01  9.8190670057647389e-01  9.8159301864639525e-01  9.8134369959590484e-01  9.8116497513626810e-01  9.8106160826999711e-01  9.8103667858955945e-01  9.8109143759653106e-01  9.8122524499178931e-01  9.8143559081412413e-01  9.8171820168865209e-01  9.8206722303763050e-01  9.8247546362033467e-01  9.8293468477777268e-01  9.8343591461074564e-01  9.8396976710437922e-01  9.8452674776701155e-01  9.8509753031525571e-01  9.8567319282669796e-01  9.8624540607601929e-01  9.8680657098737312e-01  9.8734990588914462e-01  9.8786948728647994e-01  9.8836025004353334e-01  9.8881795417907914e-01  9.8923912600176778e-01  9.8962098117327713e-01  9.8996133663276487e-01  9.9025851726804059e-01  9.9051126186015948e-01  9.9071863129034454e-01  9.9087992128031477e-01  9.9099458903936199e-01  9.9106226074965631e-01  9.9108323939999554e-01  5.9776393965374408e-01  6.0099949485505400e-01  6.1051882942052638e-01  6.2569383209733720e-01  6.4564478804226699e-01  6.6930267716293257e-01  6.9550272082846520e-01  7.2308516419908331e-01  7.5098412375329804e-01  7.7829277274193032e-01  8.0430011412084212e-01  8.2850052903695093e-01  8.5058144569601468e-01  8.7039645697400680e-01  8.8793123375511229e-01  9.0326827230982798e-01  9.1655462430088885e-01  9.2797488821035845e-01  9.3773024129023230e-01  9.4602327928471275e-01  9.5304787036306149e-01  9.5898301120478935e-01  9.6398967589248885e-01  9.6820977038584899e-01  9.7176647474808164e-01  9.7476542778759956e-01  9.7729636148800181e-01  9.7943491673459926e-01  9.8124446677592547e-01  9.8277784398012857e-01  9.8407891361694122e-01  9.8518397052632056e-01  9.8612295492762048e-01  9.8692049575304541e-01  9.8759679641201736e-01  9.8816838075655644e-01  9.8864871760194517e-01  9.8904874140981625e-01  9.8937728529345959e-01  9.8964144076312754e-01  9.8984685684152329e-01  9.8999798948956852e-01  9.9009831076278665e-01  9.9015048579648823e-01  9.9015652459167369e-01  9.9011791462331045e-01  9.9003573948717427e-01  9.8991078810245270e-01  9.8974365835192846e-01  9.8953485842428279e-01  9.8928490847746042e-01  9.8899444452302299e-01  9.8866432559848760e-01  9.8829574431636935e-01  9.8789033973868801e-01  9.8745031022999974e-01  9.8697852252666241e-01  9.8647861179851093e-01  9.8595506608725347e-01  9.8541328734213118e-01  9.8485962053192921e-01  9.8430134220697618e-01  9.8374660062172514e-01  9.8320430127048675e-01  9.8268393451208913e-01  9.8219534581155066e-01  9.8174845379595377e-01  9.8135292642413507e-01  9.8101783057011160e-01  9.8075127458514733e-01  9.8056006628863912e-01  9.8044940979533191e-01  9.8042266327202843e-01  9.8048117607703467e-01  9.8062421804589373e-01  9.8084900653324070e-01  9.8115082901806661e-01  9.8152325154585007e-01  9.8195839688756970e-01  9.8244727173052182e-01  9.8298011988408662e-01  9.8354677846455152e-01  9.8413701608896142e-01  9.8474083579265403e-01  9.8534873008441326e-01  9.8595188063212802e-01  9.8654229995879483e-01  9.8711291678109681e-01  9.8765760995955210e-01  9.8817119833158640e-01  9.8864939498740667e-01  9.8908873494664273e-01  9.8948648488821567e-01  9.8984054279577438e-01  9.9014933435025176e-01  9.9041171195381561e-01  9.9062686204206518e-01  9.9079422850800480e-01  9.9091346917163559e-01  9.9098448774571357e-01  9.9100762015538613e-01  6.1258714709843709e-01  6.1558605831118063e-01  6.2456532560521616e-01  6.3896280028213692e-01  6.5794778195750769e-01  6.8050306321155241e-01  7.0551958855491104e-01  7.3189246185677781e-01  7.5860469515223083e-01  7.8478880148328767e-01  8.0976189830587630e-01  8.3303532176924100e-01  8.5430362408539606e-01  8.7341972516357269e-01  8.9036306659854836e-01  9.0520644504438119e-01  9.1808546825056259e-01  9.2917283962437092e-01  9.3865826806221453e-01  9.4673383680644529e-01  9.5358412111090207e-01  9.5938012277342455e-01  9.6427607917162350e-01  9.6840831046069953e-01  9.7189542286658226e-01  9.7483934608028688e-01  9.7732682614187116e-01  9.7943111280374251e-01  9.8121367099600809e-01  9.8272581249332425e-01  9.8401019055679062e-01  9.8510213171339212e-01  9.8603079895713097e-01  9.8682019278921029e-01  9.8749000318697311e-01  9.8805632867021809e-01  9.8853227945178002e-01  9.8892848113900977e-01  9.8925349421269337e-01  9.8951416295124850e-01  9.8971590584007341e-01  9.8986295795439783e-01  9.8995857440530277e-01  9.9000520272375137e-01  9.9000463102811798e-01  9.8995811795955935e-01  9.8986650964699507e-01  9.8973034834134166e-01  9.8954997679271506e-01  9.8932564188567063e-01  9.8905760044411695e-01  9.8874622941624768e-01  9.8839214179991675e-01  9.8799630862706467e-01  9.8756018606347107e-01  9.8708584519258891e-01  9.8657610036950838e-01  9.8603463022884352e-01  9.8546608363876542e-01  9.8487616130133671e-01  9.8427166254944298e-01  9.8366048646263016e-01  9.8305157700301127e-01  9.8245480370174865e-01  9.8188077265107776e-01  9.8134056716147577e-01  9.8084542320343604e-01  9.8040635120876762e-01  9.8003372227898211e-01  9.7973684250655668e-01  9.7952354308804146e-01  9.7939981543431798e-01  9.7936951906419134e-01  9.7943418559299111e-01  9.7959293493964628e-01  9.7984251074493900e-01  9.8017743201096630e-01  9.8059024836915032e-01  9.8107187832600218e-01  9.8161200422653649e-01  9.8219949502298942e-01  9.8282282830054624e-01  9.8347048603664811e-01  9.8413130359063294e-01  9.8479475760538604e-01  9.8545118500685047e-01  9.8609193137599782e-01  9.8670943209993278e-01  9.8729723357013799e-01  9.8784996419037108e-01  9.8836326616668257e-01  9.8883369918380293e-01  9.8925862640189843e-01  9.8963609203957448e-01  9.8996469845754809e-01  9.9024348946616791e-01  9.9047184598254989e-01  9.9064940071492791e-01  9.9077598042083714e-01  9.9085158385529837e-01  9.9087637949762053e-01  6.3203705592172610e-01  6.3479790600495700e-01  6.4314210634947222e-01  6.5656758281727867e-01  6.7431148242716077e-01  6.9543123982847166e-01  7.1889552491711339e-01  7.4367432254583732e-01  7.6881684226127256e-01  7.9350888593769975e-01  8.1710593740353277e-01  8.3914287970882206e-01  8.5932469892940200e-01  8.7750427175194801e-01  8.9365345255358308e-01  9.0783266427556886e-01  9.2016265841084344e-01  9.3080054343988106e-01  9.3992089269089485e-01  9.4770184713144034e-01  9.5431560990715958e-01  9.5992250575014160e-01  9.6466775198531418e-01  9.6868017324829048e-01  9.7207222645255409e-01  9.7494084607216480e-01  9.7736875062279027e-01  9.7942595993917614e-01  9.8117135758230534e-01  9.8265419551963951e-01  9.8391548279253604e-01  9.8498923020707319e-01  9.8590354279014658e-01  9.8668156385361583e-01  9.8734228135682456e-01  9.8790121060865421e-01  9.8837096847123296e-01  9.8876175400416888e-01  9.8908174952156669e-01  9.8933745471878076e-01  9.8953396511108105e-01  9.8967520466110304e-01  9.8976412123726687e-01  9.8980285247732802e-01  9.8979286873613870e-01  9.8973509906096779e-01  9.8963004553404499e-01  9.8947789081272031e-01  9.8927860323664130e-01  9.8903204340494144e-01  9.8873807559436033e-01  9.8839668672637049e-01  9.8800811473124828e-01  9.8757298703740926e-01  9.8709246848621746e-01  9.8656841621224978e-01  9.8600353695348553e-01  9.8540153993926027e-01  9.8476727609320791e-01  9.8410685201457171e-01  9.8342770537857382e-01  9.8273862740660067e-01  9.8204971831069121e-01  9.8137226349302609e-01  9.8071852204483689e-01  9.8010142480026674e-01  9.7953418663107539e-01  9.7902984625107536e-01  9.7860075563613180e-01  9.7825804910651937e-01  9.7801112791954048e-01  9.7786719875899963e-01  9.7783090301580922e-01  9.7790406801239249e-01  9.7808560176986781e-01  9.7837154062091780e-01  9.7875524547644521e-01  9.7922772961370630e-01  9.7977809011833417e-01  9.8039400784379227e-01  9.8106227762361364e-01  9.8176933150227830e-01  9.8250172236474631e-01  9.8324654254157307e-01  9.8399176054099202e-01  9.8472646782363049e-01  9.8544103549673057e-01  9.8612718727243831e-01  9.8677799965395807e-01  9.8738784303562876e-01  9.8795227841665278e-01  9.8846792407262463e-01  9.8893230521233455e-01  9.8934369778196796e-01  9.8970097553979797e-01  9.9000346762506497e-01  9.9025083229846222e-01  9.9044295130118110e-01  9.9057984755402728e-01  9.9066162381208045e-01  9.9068840514684975e-01  6.5520215533520898e-01  6.5771019349325144e-01  6.6534035976665440e-01  6.7764689264603850e-01  6.9394339227476876e-01  7.1337602369048592e-01  7.3500668561846361e-01  7.5789516146527758e-01  7.8117008840250624e-01  8.0408144539816451e-01  8.2603131268281860e-01  8.4658367649277189e-01  8.6545706911515674e-01  8.8250538709225279e-01  8.9769238389849815e-01  9.1106449344958840e-01  9.2272531881860209e-01  9.3281375017154955e-01  9.4148652872649075e-01  9.4890525962665262e-01  9.5522739086818176e-01  9.6060045239483860e-01  9.6515880646981334e-01  9.6902222284254613e-01  9.7229570388872610e-01  9.7507010907906622e-01  9.7742324401477343e-01  9.7942117726609179e-01  9.8111962576553158e-01  9.8256530775176376e-01  9.8379720415185168e-01  9.8484769820160867e-01  9.8574358220861358e-01  9.8650693234862197e-01  9.8715585938923156e-01  9.8770514687365929e-01  9.8816678975590100e-01  9.8855044659490698e-01  9.8886381776668741e-01  9.8911296112444891e-01  9.8930255537585832e-01  9.8943612030547301e-01  9.8951620193576195e-01  9.8954452983403862e-01  9.8952215304706137e-01  9.8944956057122890e-01  9.8932679182009531e-01  9.8915354219565188e-01  9.8892926855723051e-01  9.8865329905221644e-01  9.8832495135482523e-01  9.8794366277127266e-01  9.8750913482256930e-01  9.8702149371947845e-01  9.8648146651695190e-01  9.8589057062205387e-01  9.8525131172114122e-01  9.8456738215212014e-01  9.8384384843765527e-01  9.8308731339731081e-01  9.8230603538247552e-01  9.8150998525627864e-01  9.8071082137311028e-01  9.7992176459194835e-01  9.7915735975204332e-01  9.7843311725073556e-01  9.7776503819084537e-01  9.7716903830919566e-01  9.7666029834256618e-01  9.7625257999844506e-01  9.7595755544356366e-01  9.7578420249556397e-01  9.7573831628001617e-01  9.7582218057596393e-01  9.7603442898066195e-01  9.7637010890464648e-01  9.7682094251829665e-01  9.7737576069235665e-01  9.7802107113256331e-01  9.7874171212896011e-01  9.7952153955291044e-01  9.8034409687770308e-01  9.8119322513376150e-01  9.8205358029422185e-01  9.8291103782211897e-01  9.8375297627820124e-01  9.8456844260781906e-01  9.8534821009589990e-01  9.8608474560643333e-01  9.8677210565337725e-01  9.8740578144985447e-01  9.8798251190149600e-01  9.8850008115585541e-01  9.8895711436441802e-01  9.8935288222936713e-01  9.8968712202843934e-01  9.8995988029418380e-01  9.9017138006632710e-01  9.9032191313462581e-01  9.9041175402062820e-01  9.9044108739930103e-01  6.8104326834414086e-01  6.8328856198945576e-01  6.9015309712686890e-01  7.0124623490776183e-01  7.1596200995312154e-01  7.3354284353565280e-01  7.5315295540225879e-01  7.7395119738968920e-01  7.9515421375836592e-01  8.1608352858494582e-01  8.3619369747861838e-01  8.5508211092779352e-01  8.7248363097352122e-01  8.8825460995369154e-01  9.0235102619620111e-01  9.1480480479722248e-01  9.2570129342714069e-01  9.3515969841644220e-01  9.4331729099196759e-01  9.5031747032495251e-01  9.5630132374560561e-01  9.6140210582856989e-01  9.6574199985312881e-01  9.6943056440527076e-01  9.7256435573676059e-01  9.7522731992698897e-01  9.7749164844071246e-01  9.7941887673308703e-01  9.8106107487179317e-01  9.8246203209537664e-01  9.8365837592548566e-01  9.8468059360963478e-01  9.8555394195917967e-01  9.8629924339298214e-01  9.8693357309100904e-01  9.8747084606357749e-01  9.8792231473617542e-01  9.8829698811811406e-01  9.8860198331232463e-01  9.8884281940498975e-01  9.8902366289199273e-01  9.8914753290900359e-01  9.8921647372533406e-01  9.8923170128725912e-01  9.8919373007306266e-01  9.8910248614681506e-01  9.8895741205103194e-01  9.8875756902501011e-01  9.8850174192563045e-01  9.8818855209403877e-01  9.8781658317002219e-01  9.8738452440260660e-01  9.8689133522016348e-01  9.8633643357527956e-01  9.8571990873976134e-01  9.8504275668646035e-01  9.8430713290161798e-01  9.8351661345770802e-01  9.8267645060748721e-01  9.8179380437226238e-01  9.8087792712689170e-01  9.7994027476270773e-01  9.7899451651815517e-01  9.7805641692923229e-01  9.7714356836750393e-01  9.7627496176380291e-01  9.7547039625835941e-01  9.7474974482766763e-01  9.7413211076170625e-01  9.7363492685040864e-01  9.7327306254614465e-01  9.7305801155759708e-01  9.7299723132578941e-01  9.7309369584610905e-01  9.7334570504165729e-01  9.7374696957253426e-01  9.7428696294179451e-01  9.7495150691078414e-01  9.7572353520526967e-01  9.7658396698730354e-01  9.7751261690055447e-01  9.7848907246000794e-01  9.7949348062062369e-01  9.8050720111978551e-01  9.8151330192101660e-01  9.8249688926596113e-01  9.8344527951943350e-01  9.8434803098487034e-01  9.8519686076160962e-01  9.8598547473694120e-01  9.8670933861571952e-01  9.8736541536737710e-01  9.8795189052496279e-01  9.8846790221195913e-01  9.8891328822883784e-01  9.8928835841777629e-01  9.8959369703517286e-01  9.8982999697929697e-01  9.8999792526390140e-01  9.9009801698344213e-01  9.9013059384325997e-01  7.0849526039025967e-01  7.1047659616166359e-01  7.1655489247306114e-01  7.2639348508811885e-01  7.3946741094323376e-01  7.5511759129902489e-01  7.7261389366204680e-01  7.9121808364365087e-01  8.1023877324214300e-01  8.2907283151916333e-01  8.4723072961107970e-01  8.6434619631160403e-01  8.8017275513129811e-01  8.9457090236934378e-01  9.0748990030177701e-01  9.1894765744885365e-01  9.2901128654047360e-01  9.3777996928165908e-01  9.4537091523314065e-01  9.5190857394312833e-01  9.5751685758766314e-01  9.6231392141630623e-01  9.6640897893687083e-01  9.6990064660963393e-01  9.7287637751819911e-01  9.7541262612364676e-01  9.7757546898910164e-01  9.7942147989473383e-01  9.8099871829308427e-01  9.8234773718773372e-01  9.8350255160273103e-01  9.8449153389655331e-01  9.8533821941560118e-01  9.8606201732935916e-01  9.8667882857010170e-01  9.8720157689985355e-01  9.8764066122092509e-01  9.8800433804903054e-01  9.8829904308985717e-01  9.8852966045500446e-01  9.8869974746029310e-01  9.8881172232438808e-01  9.8886702152558592e-01  9.8886623313535904e-01  9.8880921215536544e-01  9.8869518374466925e-01  9.8852284022210080e-01  9.8829043783347470e-01  9.8799589943379551e-01  9.8763692937679026e-01  9.8721114692749223e-01  9.8671624428755444e-01  9.8615017468637145e-01  9.8551137475717876e-01  9.8479902338683833e-01  9.8401333621421549e-01  9.8315589081973365e-01  9.8222997236849985e-01  9.8124092318402467e-01  9.8019647282326960e-01  9.7910701837930203e-01  9.7798581895752290e-01  9.7684906483438494e-01  9.7571578213748678e-01  9.7460753931626165e-01  9.7354793312102317e-01  9.7256184941040369e-01  9.7167451689541240e-01  9.7091039766855813e-01  9.7029198366285330e-01  9.6983858891252983e-01  9.6956523952453610e-01  9.6948176340629710e-01  9.6959216858136554e-01  9.6989437322098004e-01  9.7038031554317994e-01  9.7103643253369187e-01  9.7184445892296534e-01  9.7278246755238240e-01  9.7382605325829874e-01  9.7494955658897620e-01  9.7612723057395623e-01  9.7733427090160641e-01  9.7854765346395767e-01  9.7974674914245008e-01  9.8091371019145035e-01  9.8203364285891170e-01  9.8309459541403710e-01  9.8408739915391819e-01  9.8500540278759574e-01  9.8584413898788015e-01  9.8660095724764785e-01  9.8727465083960309e-01  9.8786509880784668e-01  9.8837293736664145e-01  9.8879926937960627e-01  9.8914541598951367e-01  9.8941271099508943e-01  9.8960233614570947e-01  9.8971519413517106e-01  9.8975181603324602e-01  7.3655069486100744e-01  7.3827537983739289e-01  7.4357629491664290e-01  7.5216844374986502e-01  7.6360539846426900e-01  7.7732445051944155e-01  7.9269953714534314e-01  8.0909442026737366e-01  8.2590948116788510e-01  8.4261744504586111e-01  8.5878582206692855e-01  8.7408623926769458e-01  8.8829265969927762e-01  9.0127150478189999e-01  9.1296693066311974e-01  9.2338415427577969e-01  9.3257304236583649e-01  9.4061340577666386e-01  9.4760274731365735e-01  9.5364667822265647e-01  9.5885186403322376e-01  9.6332116357837050e