<?xml version="1.0"?>
<VTKFile type="UnstructuredGrid"  version="0.1"  >
<UnstructuredGrid>
<Piece  NumberOfPoints="10201" NumberOfCells="20000">
<Points>
<DataArray  type="Float64"  NumberOfComponents="3"  format="ascii">0 0 0  0.25 0 0  0.5 0 0  0.75 0 0  1 0 0  1.25 0 0  1.5 0 0  1.75 0 0  2 0 0  2.25 0 0  2.5 0 0  2.75 0 0  3 0 0  3.25 0 0  3.5 0 0  3.75 0 0  4 0 0  4.25 0 0  4.5 0 0  4.75 0 0  5 0 0  5.25 0 0  5.5 0 0  5.75 0 0  6 0 0  6.25 0 0  6.5 0 0  6.75 0 0  7 0 0  7.25 0 0  7.5 0 0  7.75 0 0  8 0 0  8.25 0 0  8.5 0 0  8.75 0 0  9 0 0  9.25 0 0  9.5 0 0  9.75 0 0  10 0 0  10.25 0 0  10.5 0 0  10.75 0 0  11 0 0  11.25 0 0  11.5 0 0  11.75 0 0  12 0 0  12.25 0 0  12.5 0 0  12.75 0 0  13 0 0  13.25 0 0  13.5 0 0  13.75 0 0  14 0 0  14.25 0 0  14.5 0 0  14.75 0 0  15 0 0  15.25 0 0  15.5 0 0  15.75 0 0  16 0 0  16.25 0 0  16.5 0 0  16.75 0 0  17 0 0  17.25 0 0  17.5 0 0  17.75 0 0  18 0 0  18.25 0 0  18.5 0 0  18.75 0 0  19 0 0  19.25 0 0  19.5 0 0  19.75 0 0  20 0 0  20.25 0 0  20.5 0 0  20.75 0 0  21 0 0  21.25 0 0  21.5 0 0  21.75 0 0  22 0 0  22.25 0 0  22.5 0 0  22.75 0 0  23 0 0  23.25 0 0  23.5 0 0  23.75 0 0  24 0 0  24.25 0 0  24.5 0 0  24.75 0 0  25 0 0  0 0.25 0  0.25 0.25 0  0.5 0.25 0  0.75 0.25 0  1 0.25 0  1.25 0.25 0  1.5 0.25 0  1.75 0.25 0  2 0.25 0  2.25 0.25 0  2.5 0.25 0  2.75 0.25 0  3 0.25 0  3.25 0.25 0  3.5 0.25 0  3.75 0.25 0  4 0.25 0  4.25 0.25 0  4.5 0.25 0  4.75 0.25 0  5 0.25 0  5.25 0.25 0  5.5 0.25 0  5.75 0.25 0  6 0.25 0  6.25 0.25 0  6.5 0.25 0  6.75 0.25 0  7 0.25 0  7.25 0.25 0  7.5 0.25 0  7.75 0.25 0  8 0.25 0  8.25 0.25 0  8.5 0.25 0  8.75 0.25 0  9 0.25 0  9.25 0.25 0  9.5 0.25 0  9.75 0.25 0  10 0.25 0  10.25 0.25 0  10.5 0.25 0  10.75 0.25 0  11 0.25 0  11.25 0.25 0  11.5 0.25 0  11.75 0.25 0  12 0.25 0  12.25 0.25 0  12.5 0.25 0  12.75 0.25 0  13 0.25 0  13.25 0.25 0  13.5 0.25 0  13.75 0.25 0  14 0.25 0  14.25 0.25 0  14.5 0.25 0  14.75 0.25 0  15 0.25 0  15.25 0.25 0  15.5 0.25 0  15.75 0.25 0  16 0.25 0  16.25 0.25 0  16.5 0.25 0  16.75 0.25 0  17 0.25 0  17.25 0.25 0  17.5 0.25 0  17.75 0.25 0  18 0.25 0  18.25 0.25 0  18.5 0.25 0  18.75 0.25 0  19 0.25 0  19.25 0.25 0  19.5 0.25 0  19.75 0.25 0  20 0.25 0  20.25 0.25 0  20.5 0.25 0  20.75 0.25 0  21 0.25 0  21.25 0.25 0  21.5 0.25 0  21.75 0.25 0  22 0.25 0  22.25 0.25 0  22.5 0.25 0  22.75 0.25 0  23 0.25 0  23.25 0.25 0  23.5 0.25 0  23.75 0.25 0  24 0.25 0  24.25 0.25 0  24.5 0.25 0  24.75 0.25 0  25 0.25 0  0 0.5 0  0.25 0.5 0  0.5 0.5 0  0.75 0.5 0  1 0.5 0  1.25 0.5 0  1.5 0.5 0  1.75 0.5 0  2 0.5 0  2.25 0.5 0  2.5 0.5 0  2.75 0.5 0  3 0.5 0  3.25 0.5 0  3.5 0.5 0  3.75 0.5 0  4 0.5 0  4.25 0.5 0  4.5 0.5 0  4.75 0.5 0  5 0.5 0  5.25 0.5 0  5.5 0.5 0  5.75 0.5 0  6 0.5 0  6.25 0.5 0  6.5 0.5 0  6.75 0.5 0  7 0.5 0  7.25 0.5 0  7.5 0.5 0  7.75 0.5 0  8 0.5 0  8.25 0.5 0  8.5 0.5 0  8.75 0.5 0  9 0.5 0  9.25 0.5 0  9.5 0.5 0  9.75 0.5 0  10 0.5 0  10.25 0.5 0  10.5 0.5 0  10.75 0.5 0  11 0.5 0  11.25 0.5 0  11.5 0.5 0  11.75 0.5 0  12 0.5 0  12.25 0.5 0  12.5 0.5 0  12.75 0.5 0  13 0.5 0  13.25 0.5 0  13.5 0.5 0  13.75 0.5 0  14 0.5 0  14.25 0.5 0  14.5 0.5 0  14.75 0.5 0  15 0.5 0  15.25 0.5 0  15.5 0.5 0  15.75 0.5 0  16 0.5 0  16.25 0.5 0  16.5 0.5 0  16.75 0.5 0  17 0.5 0  17.25 0.5 0  17.5 0.5 0  17.75 0.5 0  18 0.5 0  18.25 0.5 0  18.5 0.5 0  18.75 0.5 0  19 0.5 0  19.25 0.5 0  19.5 0.5 0  19.75 0.5 0  20 0.5 0  20.25 0.5 0  20.5 0.5 0  20.75 0.5 0  21 0.5 0  21.25 0.5 0  21.5 0.5 0  21.75 0.5 0  22 0.5 0  22.25 0.5 0  22.5 0.5 0  22.75 0.5 0  23 0.5 0  23.25 0.5 0  23.5 0.5 0  23.75 0.5 0  24 0.5 0  24.25 0.5 0  24.5 0.5 0  24.75 0.5 0  25 0.5 0  0 0.75 0  0.25 0.75 0  0.5 0.75 0  0.75 0.75 0  1 0.75 0  1.25 0.75 0  1.5 0.75 0  1.75 0.75 0  2 0.75 0  2.25 0.75 0  2.5 0.75 0  2.75 0.75 0  3 0.75 0  3.25 0.75 0  3.5 0.75 0  3.75 0.75 0  4 0.75 0  4.25 0.75 0  4.5 0.75 0  4.75 0.75 0  5 0.75 0  5.25 0.75 0  5.5 0.75 0  5.75 0.75 0  6 0.75 0  6.25 0.75 0  6.5 0.75 0  6.75 0.75 0  7 0.75 0  7.25 0.75 0  7.5 0.75 0  7.75 0.75 0  8 0.75 0  8.25 0.75 0  8.5 0.75 0  8.75 0.75 0  9 0.75 0  9.25 0.75 0  9.5 0.75 0  9.75 0.75 0  10 0.75 0  10.25 0.75 0  10.5 0.75 0  10.75 0.75 0  11 0.75 0  11.25 0.75 0  11.5 0.75 0  11.75 0.75 0  12 0.75 0  12.25 0.75 0  12.5 0.75 0  12.75 0.75 0  13 0.75 0  13.25 0.75 0  13.5 0.75 0  13.75 0.75 0  14 0.75 0  14.25 0.75 0  14.5 0.75 0  14.75 0.75 0  15 0.75 0  15.25 0.75 0  15.5 0.75 0  15.75 0.75 0  16 0.75 0  16.25 0.75 0  16.5 0.75 0  16.75 0.75 0  17 0.75 0  17.25 0.75 0  17.5 0.75 0  17.75 0.75 0  18 0.75 0  18.25 0.75 0  18.5 0.75 0  18.75 0.75 0  19 0.75 0  19.25 0.75 0  19.5 0.75 0  19.75 0.75 0  20 0.75 0  20.25 0.75 0  20.5 0.75 0  20.75 0.75 0  21 0.75 0  21.25 0.75 0  21.5 0.75 0  21.75 0.75 0  22 0.75 0  22.25 0.75 0  22.5 0.75 0  22.75 0.75 0  23 0.75 0  23.25 0.75 0  23.5 0.75 0  23.75 0.75 0  24 0.75 0  24.25 0.75 0  24.5 0.75 0  24.75 0.75 0  25 0.75 0  0 1 0  0.25 1 0  0.5 1 0  0.75 1 0  1 1 0  1.25 1 0  1.5 1 0  1.75 1 0  2 1 0  2.25 1 0  2.5 1 0  2.75 1 0  3 1 0  3.25 1 0  3.5 1 0  3.75 1 0  4 1 0  4.25 1 0  4.5 1 0  4.75 1 0  5 1 0  5.25 1 0  5.5 1 0  5.75 1 0  6 1 0  6.25 1 0  6.5 1 0  6.75 1 0  7 1 0  7.25 1 0  7.5 1 0  7.75 1 0  8 1 0  8.25 1 0  8.5 1 0  8.75 1 0  9 1 0  9.25 1 0  9.5 1 0  9.75 1 0  10 1 0  10.25 1 0  10.5 1 0  10.75 1 0  11 1 0  11.25 1 0  11.5 1 0  11.75 1 0  12 1 0  12.25 1 0  12.5 1 0  12.75 1 0  13 1 0  13.25 1 0  13.5 1 0  13.75 1 0  14 1 0  14.25 1 0  14.5 1 0  14.75 1 0  15 1 0  15.25 1 0  15.5 1 0  15.75 1 0  16 1 0  16.25 1 0  16.5 1 0  16.75 1 0  17 1 0  17.25 1 0  17.5 1 0  17.75 1 0  18 1 0  18.25 1 0  18.5 1 0  18.75 1 0  19 1 0  19.25 1 0  19.5 1 0  19.75 1 0  20 1 0  20.25 1 0  20.5 1 0  20.75 1 0  21 1 0  21.25 1 0  21.5 1 0  21.75 1 0  22 1 0  22.25 1 0  22.5 1 0  22.75 1 0  23 1 0  23.25 1 0  23.5 1 0  23.75 1 0  24 1 0  24.25 1 0  24.5 1 0  24.75 1 0  25 1 0  0 1.25 0  0.25 1.25 0  0.5 1.25 0  0.75 1.25 0  1 1.25 0  1.25 1.25 0  1.5 1.25 0  1.75 1.25 0  2 1.25 0  2.25 1.25 0  2.5 1.25 0  2.75 1.25 0  3 1.25 0  3.25 1.25 0  3.5 1.25 0  3.75 1.25 0  4 1.25 0  4.25 1.25 0  4.5 1.25 0  4.75 1.25 0  5 1.25 0  5.25 1.25 0  5.5 1.25 0  5.75 1.25 0  6 1.25 0  6.25 1.25 0  6.5 1.25 0  6.75 1.25 0  7 1.25 0  7.25 1.25 0  7.5 1.25 0  7.75 1.25 0  8 1.25 0  8.25 1.25 0  8.5 1.25 0  8.75 1.25 0  9 1.25 0  9.25 1.25 0  9.5 1.25 0  9.75 1.25 0  10 1.25 0  10.25 1.25 0  10.5 1.25 0  10.75 1.25 0  11 1.25 0  11.25 1.25 0  11.5 1.25 0  11.75 1.25 0  12 1.25 0  12.25 1.25 0  12.5 1.25 0  12.75 1.25 0  13 1.25 0  13.25 1.25 0  13.5 1.25 0  13.75 1.25 0  14 1.25 0  14.25 1.25 0  14.5 1.25 0  14.75 1.25 0  15 1.25 0  15.25 1.25 0  15.5 1.25 0  15.75 1.25 0  16 1.25 0  16.25 1.25 0  16.5 1.25 0  16.75 1.25 0  17 1.25 0  17.25 1.25 0  17.5 1.25 0  17.75 1.25 0  18 1.25 0  18.25 1.25 0  18.5 1.25 0  18.75 1.25 0  19 1.25 0  19.25 1.25 0  19.5 1.25 0  19.75 1.25 0  20 1.25 0  20.25 1.25 0  20.5 1.25 0  20.75 1.25 0  21 1.25 0  21.25 1.25 0  21.5 1.25 0  21.75 1.25 0  22 1.25 0  22.25 1.25 0  22.5 1.25 0  22.75 1.25 0  23 1.25 0  23.25 1.25 0  23.5 1.25 0  23.75 1.25 0  24 1.25 0  24.25 1.25 0  24.5 1.25 0  24.75 1.25 0  25 1.25 0  0 1.5 0  0.25 1.5 0  0.5 1.5 0  0.75 1.5 0  1 1.5 0  1.25 1.5 0  1.5 1.5 0  1.75 1.5 0  2 1.5 0  2.25 1.5 0  2.5 1.5 0  2.75 1.5 0  3 1.5 0  3.25 1.5 0  3.5 1.5 0  3.75 1.5 0  4 1.5 0  4.25 1.5 0  4.5 1.5 0  4.75 1.5 0  5 1.5 0  5.25 1.5 0  5.5 1.5 0  5.75 1.5 0  6 1.5 0  6.25 1.5 0  6.5 1.5 0  6.75 1.5 0  7 1.5 0  7.25 1.5 0  7.5 1.5 0  7.75 1.5 0  8 1.5 0  8.25 1.5 0  8.5 1.5 0  8.75 1.5 0  9 1.5 0  9.25 1.5 0  9.5 1.5 0  9.75 1.5 0  10 1.5 0  10.25 1.5 0  10.5 1.5 0  10.75 1.5 0  11 1.5 0  11.25 1.5 0  11.5 1.5 0  11.75 1.5 0  12 1.5 0  12.25 1.5 0  12.5 1.5 0  12.75 1.5 0  13 1.5 0  13.25 1.5 0  13.5 1.5 0  13.75 1.5 0  14 1.5 0  14.25 1.5 0  14.5 1.5 0  14.75 1.5 0  15 1.5 0  15.25 1.5 0  15.5 1.5 0  15.75 1.5 0  16 1.5 0  16.25 1.5 0  16.5 1.5 0  16.75 1.5 0  17 1.5 0  17.25 1.5 0  17.5 1.5 0  17.75 1.5 0  18 1.5 0  18.25 1.5 0  18.5 1.5 0  18.75 1.5 0  19 1.5 0  19.25 1.5 0  19.5 1.5 0  19.75 1.5 0  20 1.5 0  20.25 1.5 0  20.5 1.5 0  20.75 1.5 0  21 1.5 0  21.25 1.5 0  21.5 1.5 0  21.75 1.5 0  22 1.5 0  22.25 1.5 0  22.5 1.5 0  22.75 1.5 0  23 1.5 0  23.25 1.5 0  23.5 1.5 0  23.75 1.5 0  24 1.5 0  24.25 1.5 0  24.5 1.5 0  24.75 1.5 0  25 1.5 0  0 1.75 0  0.25 1.75 0  0.5 1.75 0  0.75 1.75 0  1 1.75 0  1.25 1.75 0  1.5 1.75 0  1.75 1.75 0  2 1.75 0  2.25 1.75 0  2.5 1.75 0  2.75 1.75 0  3 1.75 0  3.25 1.75 0  3.5 1.75 0  3.75 1.75 0  4 1.75 0  4.25 1.75 0  4.5 1.75 0  4.75 1.75 0  5 1.75 0  5.25 1.75 0  5.5 1.75 0  5.75 1.75 0  6 1.75 0  6.25 1.75 0  6.5 1.75 0  6.75 1.75 0  7 1.75 0  7.25 1.75 0  7.5 1.75 0  7.75 1.75 0  8 1.75 0  8.25 1.75 0  8.5 1.75 0  8.75 1.75 0  9 1.75 0  9.25 1.75 0  9.5 1.75 0  9.75 1.75 0  10 1.75 0  10.25 1.75 0  10.5 1.75 0  10.75 1.75 0  11 1.75 0  11.25 1.75 0  11.5 1.75 0  11.75 1.75 0  12 1.75 0  12.25 1.75 0  12.5 1.75 0  12.75 1.75 0  13 1.75 0  13.25 1.75 0  13.5 1.75 0  13.75 1.75 0  14 1.75 0  14.25 1.75 0  14.5 1.75 0  14.75 1.75 0  15 1.75 0  15.25 1.75 0  15.5 1.75 0  15.75 1.75 0  16 1.75 0  16.25 1.75 0  16.5 1.75 0  16.75 1.75 0  17 1.75 0  17.25 1.75 0  17.5 1.75 0  17.75 1.75 0  18 1.75 0  18.25 1.75 0  18.5 1.75 0  18.75 1.75 0  19 1.75 0  19.25 1.75 0  19.5 1.75 0  19.75 1.75 0  20 1.75 0  20.25 1.75 0  20.5 1.75 0  20.75 1.75 0  21 1.75 0  21.25 1.75 0  21.5 1.75 0  21.75 1.75 0  22 1.75 0  22.25 1.75 0  22.5 1.75 0  22.75 1.75 0  23 1.75 0  23.25 1.75 0  23.5 1.75 0  23.75 1.75 0  24 1.75 0  24.25 1.75 0  24.5 1.75 0  24.75 1.75 0  25 1.75 0  0 2 0  0.25 2 0  0.5 2 0  0.75 2 0  1 2 0  1.25 2 0  1.5 2 0  1.75 2 0  2 2 0  2.25 2 0  2.5 2 0  2.75 2 0  3 2 0  3.25 2 0  3.5 2 0  3.75 2 0  4 2 0  4.25 2 0  4.5 2 0  4.75 2 0  5 2 0  5.25 2 0  5.5 2 0  5.75 2 0  6 2 0  6.25 2 0  6.5 2 0  6.75 2 0  7 2 0  7.25 2 0  7.5 2 0  7.75 2 0  8 2 0  8.25 2 0  8.5 2 0  8.75 2 0  9 2 0  9.25 2 0  9.5 2 0  9.75 2 0  10 2 0  10.25 2 0  10.5 2 0  10.75 2 0  11 2 0  11.25 2 0 
[...]
<PointData  Scalars="f_25"> 
<DataArray  type="Float64"  Name="f_25"  format="ascii">3.9569785882713757e-05  3.9576029370993832e-05  3.9590771657209721e-05  3.9614535025564790e-05  3.9647415885399078e-05  3.9689377890444982e-05  3.9740324506559511e-05  3.9800119548673612e-05  3.9868593989072885e-05  3.9945548605023231e-05  4.0030755166357542e-05  4.0123957042490493e-05  4.0224869561981834e-05  4.0333180271163524e-05  4.0448549166459530e-05  4.0570608944402999e-05  4.0698965299240337e-05  4.0833197291091159e-05  4.0972857804046992e-05  4.1117474111599582e-05  4.1266548565552474e-05  4.1419559423653883e-05  4.1575961830362454e-05  4.1735188964287502e-05  4.1896653364855342e-05  4.2059748449598032e-05  4.2223850232110708e-05  4.2388319249160834e-05  4.2552502703639697e-05  4.2715736828007063e-05  4.2877349470571361e-05  4.3036662904343322e-05  4.3192996855264136e-05  4.3345671743301770e-05  4.3494012126189295e-05  4.3637350331413248e-05  4.3775030257429334e-05  4.3906411319995475e-05  4.4030872514017162e-05  4.4147816555495470e-05  4.4256674062215391e-05  4.4356907725934356e-05  4.4448016423316658e-05  4.4529539208047143e-05  4.4601059122820519e-05  4.4662206767618008e-05  4.4712663560202487e-05  4.4752164626371862e-05  4.4780501261394949e-05  4.4797522910270055e-05  4.4803138622899473e-05  4.4797317950711900e-05  4.4780091263288845e-05  4.4751549476637658e-05  4.4711843198292302e-05  4.4661181307765505e-05  4.4599829003388314e-05  4.4528105357683696e-05  4.4446380432667574e-05  4.4355072013528331e-05  4.4254642023835564e-05  4.4145592687758882e-05  4.4028462504868299e-05  4.3903822101188146e-05  4.3772270016619422e-05  4.3634428484012671e-05  4.3490939249457343e-05  4.3342459477129331e-05  4.3189657775636438e-05  4.3033210376495188e-05  4.2873797489367059e-05  4.2712099853118958e-05  4.2548795496732133e-05  4.2384556719596177e-05  4.2220047296784794e-05  4.2055919911484914e-05  4.1892813813795980e-05  4.1731352702581162e-05  4.1572142824889578e-05  4.1415771285637377e-05  4.1262804558704726e-05  4.1113787189353968e-05  4.0969240676892004e-05  4.0829662525787370e-05  4.0695525453024715e-05  4.0567276739366774e-05  4.0445337712458336e-05  4.0330103350458422e-05  4.0221941996334770e-05  4.0121195175501518e-05  4.0028177513932492e-05  3.9943176761943102e-05  3.9866453944327028e-05  3.9798243689736536e-05  3.9738754865828995e-05  3.9688171835193756e-05  3.9646657195439358e-05  3.9614358690166440e-05  3.9591429847605759e-05  3.9578102642245810e-05  3.9574980705993828e-05  3.9576029370993832e-05  3.9581146483367786e-05  3.9595630742215350e-05  3.9619350760140396e-05  3.9652256405334857e-05  3.9694275046117395e-05  3.9745299870258317e-05  3.9805191274623265e-05  3.9873778891069131e-05  3.9950862884790146e-05  4.0036214703043112e-05  4.0129577516458221e-05  4.0230666506229859e-05  4.0339169086351658e-05  4.0454745114880714e-05  4.0577027129954107e-05  4.0705620636808314e-05  4.0840104467049373e-05  4.0980031228690943e-05  4.1124927863893596e-05  4.1274296330305229e-05  4.1427614421095641e-05  4.1584336738012854e-05  4.1743895830958672e-05  4.1905703516622920e-05  4.2069152387592833e-05  4.2233617522042555e-05  4.2398458402592818e-05  4.2563021051198361e-05  4.2726640384953511e-05  4.2888642795482369e-05  4.3048348952066920e-05  4.3205076825824223e-05  4.3358144929024227e-05  4.3506875759991950e-05  4.3650599439915420e-05  4.3788657523252488e-05  4.3920406958291996e-05  4.4045224168816243e-05  4.4162509221825576e-05  4.4271690040082308e-05  4.4372226612041464e-05  4.4463615145861879e-05  4.4545392108994235e-05  4.4617138090724412e-05  4.4678481422420824e-05  4.4729101489479281e-05  4.4768731670394304e-05  4.4797161842224536e-05  4.4814240398031683e-05  4.4819875730566906e-05  4.4814037147292764e-05  4.4796755194338836e-05  4.4768121380636291e-05  4.4728287307607145e-05  4.4677463223704064e-05  4.4615916036125594e-05  4.4543966823561759e-05  4.4461987903363247e-05  4.4370399513734531e-05  4.4269666176256424e-05  4.4160292806244729e-05  4.4042820638302141e-05  4.3917823032198160e-05  4.3785901220282139e-05  4.3647680052413271e-05  4.3503803788300601e-05  4.3354931980586196e-05  4.3201735485323132e-05  4.3044892629980256e-05  4.2885085562956622e-05  4.2722996802946664e-05  4.2559306001435925e-05  4.2394686927146053e-05  4.2229804677367895e-05  4.2065313117779221e-05  4.1901852549481875e-05  4.1740047599552911e-05  4.1580505329330109e-05  4.1423813552899229e-05  4.1270539356782926e-05  4.1121227810628409e-05  4.0976400857740050e-05  4.0836556373606820e-05  4.0702167380143089e-05  4.0573681403224684e-05  4.0451519961309275e-05  4.0336078173572312e-05  4.0227724477227998e-05  4.0126800445837272e-05  4.0033620703994314e-05  3.9948472939921354e-05  3.9871618028348345e-05  3.9803290295893198e-05  3.9743697998082851e-05  3.9693024143166715e-05  3.9651427888766530e-05  3.9619046675128329e-05  3.9595997718651487e-05  3.9582366418303233e-05  3.9578102642245810e-05  3.9590771657209721e-05  3.9595630742215357e-05  3.9609993954199152e-05  3.9633729876771019e-05  3.9666745600690125e-05  3.9708943880995715e-05  3.9760206218529000e-05  3.9820387539894904e-05  3.9889314807093741e-05  3.9966786790504320e-05  4.0052574138268465e-05  4.0146419500363549e-05  4.0248037656107960e-05  4.0357115647966972e-05  4.0473312938055166e-05  4.0596261605929921e-05  4.0725566605734615e-05  4.0860806099832248e-05  4.1001531885293929e-05  4.1147269928996700e-05  4.1297521026556570e-05  4.1451761599787020e-05  4.1609444646764247e-05  4.1770000857852893e-05  4.1932839910173147e-05  4.2097351951957243e-05  4.2262909287043829e-05  4.2428868268387779e-05  4.2594571407914067e-05  4.2759349708303163e-05  4.2922525220335485e-05  4.3083413827202602e-05  4.3241328254655074e-05  4.3395581302927405e-05  4.3545489292976270e-05  4.3690375715604540e-05  4.3829575067447996e-05  4.3962436852532193e-05  4.4088329722167933e-05  4.4206645719420245e-05  4.4316804587413100e-05  4.4418258093572407e-05  4.4510494314908957e-05  4.4593041823030660e-05  4.4665473702241393e-05  4.4727411330346331e-05  4.4778527850135011e-05  4.4818551260372105e-05  4.4847267058785987e-05  4.4864520376128631e-05  4.4870217549807869e-05  4.4864327097569838e-05  4.4846880065737188e-05  4.4817969741916225e-05  4.4777750738084141e-05  4.4726437465712003e-05  4.4664302039248584e-05  4.4591671657149861e-05  4.4508925520108315e-05  4.4416491353822168e-05  4.4314841608371572e-05  4.4204489408067518e-05  4.4085984324732443e-05  4.3959908044129286e-05  4.3826869990150196e-05  4.3687502964927137e-05  4.3542458855754409e-05  4.3392404452094226e-05  4.3238017408376310e-05  4.3079982381114023e-05  4.2918987362261482e-05  4.2755720224853796e-05  4.2590865491853164e-05  4.2425101334751897e-05  4.2259096804801185e-05  4.2093509296658190e-05  4.1928982241681894e-05  4.1766143025970529e-05  4.1605601126442967e-05  4.1447946456761296e-05  4.1293747913628517e-05  4.1143552112946415e-05  4.0997882304472153e-05  4.0857237452968514e-05  4.0722091473410993e-05  4.0592892607615196e-05  4.0470062929707727e-05  4.0353997968222415e-05  4.0245066433316054e-05  4.0143610038730738e-05  4.0049943409741484e-05  3.9964354070361232e-05  3.9887102504971131e-05  3.9818422288912386e-05  3.9758520270782180e-05  3.9707576736915649e-05  3.9665745300009826e-05  3.9633151630514227e-05  3.9609888251740566e-05  3.9595997718651487e-05  3.9591429847605759e-05  3.9614535025564790e-05  3.9619350760140396e-05  3.9633729876771026e-05  3.9657583761848461e-05  3.9690819546674124e-05  3.9733332272570990e-05  3.9784997052478385e-05  3.9845664708859971e-05  3.9915159734179842e-05  3.9993279406900219e-05  4.0079793424973427e-05  4.0174443765889289e-05  4.0276944653777902e-05  4.0386982590700146e-05  4.0504216442214036e-05  4.0628277581342594e-05  4.0758770101087932e-05  4.0895271108246767e-05  4.1037331112401332e-05  4.1184474524374415e-05  4.1336200278468525e-05  4.1491982592585706e-05  4.1651271879899567e-05  4.1813495825150849e-05  4.1978060637880815e-05  4.2144352494021509e-05  4.2311739176245896e-05  4.2479571922359682e-05  4.2647187489795059e-05  4.2813910442936622e-05  4.2979055668539422e-05  4.3141931122830449e-05  4.3301840811928143e-05  4.3458088004850304e-05  4.3609978675465574e-05  4.3756825166120755e-05  4.3897950061196872e-05  4.4032690253392233e-05  4.4160401179042471e-05  4.4280461191296703e-05  4.4392276031623880e-05  4.4495283351205875e-05  4.4588957224710487e-05  4.4672812590281868e-05  4.4746409541997200e-05  4.4809357395224835e-05  4.4861318441979901e-05  4.4902011313119866e-05  4.4931213867505229e-05  4.4948765535290972e-05  4.4954569053258111e-05  4.4948591544189748e-05  4.4930864909105035e-05  4.4901485519808408e-05  4.4860613218644233e-05  4.4808469651447231e-05  4.4745335977355853e-05  4.4671550014445399e-05  4.4587502892288649e-05  4.4493635291080649e-05  4.4390433351684127e-05  4.4278424341962087e-05  4.4158172162418463e-05  4.4030272769013001e-05  4.3895349583722592e-05  4.3754048954706908e-05  4.3607035718498408e-05  4.3454988907096159e-05  4.3298597633704356e-05  4.3138557182488271e-05  4.2975565320351730e-05  4.2810318842472591e-05  4.2643510358161925e-05  4.2475825319455060e-05  4.2307939291565507e-05  4.2140515461779190e-05  4.1974202381378476e-05  4.1809631933619466e-05  4.1647417519523901e-05  4.1488152452199844e-05  4.1332408549513356e-05  4.1180734914164472e-05  4.1033656889562396e-05  4.0891675179350755e-05  4.0755265118015105e-05  4.0624876079725457e-05  4.0500931012434053e-05  4.0383826084253265e-05  4.0273930429232174e-05  4.0171585979696270e-05  4.0077107371974331e-05  3.9990781910793974e-05  3.9912869572933367e-05  3.9843603018222031e-05  3.9783187544749718e-05  3.9731800850368270e-05  3.9689592293084775e-05  3.9656680997870021e-05  3.9633151630514227e-05  3.9619046675128329e-05  3.9614358690166440e-05  3.9647415885399085e-05  3.9652256405334863e-05  3.9666745600690132e-05  3.9690819546674124e-05  3.9724393227946334e-05  3.9767361791793282e-05  3.9819598307002757e-05  3.9880951512749429e-05  3.9951244297673797e-05  4.0030272798442352e-05  4.0117805890320191e-05  4.0213584905109653e-05  4.0317323483446166e-05  4.0428707516465364e-05  4.0547395159466668e-05  4.0673016915148815e-05  4.0805175791920185e-05  4.0943447546968002e-05  4.1087381025949963e-05  4.1236498612244107e-05  4.1390296799110057e-05  4.1548246898111869e-05  4.1709795896859733e-05  4.1874367478627795e-05  4.2041363215762852e-05  4.2210163948071079e-05  4.2380131356608361e-05  4.2550609742548970e-05  4.2720928020092648e-05  4.2890401931694237e-05  4.3058336493225102e-05  4.3224028675918856e-05  4.3386770330977461e-05  4.3545851361325063e-05  4.3700563142953559e-05  4.3850202195333497e-05  4.3994074096186034e-05  4.4131497630280314e-05  4.4261809154664626e-05  4.4384367153812887e-05  4.4498556947693984e-05  4.4603795504075834e-05  4.4699536294005996e-05  4.4785274117121267e-05  4.4860549812158232e-05  4.4924954758795447e-05  4.4978135070793616e-05  4.5019795378248104e-05  4.5049702099343333e-05  4.5067686109693312e-05  4.5073644730159878e-05  4.5067542971517121e-05  4.5049413995613312e-05  4.5019358776547781e-05  4.4977544970359550e-05  4.4924205026235700e-05  4.4859633594756893e-05  4.4784184307862141e-05  4.4698266020008611e-05  4.4602338609796280e-05  4.4496908445925753e-05  4.4382523620980616e-05  4.4259769051752413e-05  4.4129261536499994e-05  4.3991644848656250e-05  4.3847584934107961e-05  4.3697765266264764e-05  4.3542882400551381e-05  4.3383641758363141e-05  4.3220753660365794e-05  4.3054929620535686e-05  4.2886878905575722e-05  4.2717305359211371e-05  4.2546904487168264e-05  4.2376360796099826e-05  4.2206345378092847e-05  4.2037513731365178e-05  4.1870503807154446e-05  4.1705934272398203e-05  4.1544402977494609e-05  4.1386485618130215e-05  4.1232734579828390e-05  4.1083677953504668e-05  4.0939818709927573e-05  4.0801634020600619e-05  4.0669574712223673e-05  4.0544064841564616e-05  4.0425501377244694e-05  4.0314253974515667e-05  4.0210664828363026e-05  4.0115048588748847e-05  4.0027692318597377e-05  3.9948855468450233e-05  3.9878769828262281e-05  3.9817639390895110e-05  3.9765640015701301e-05  3.9722918710944088e-05  3.9689592293084775e-05  3.9665745300009826e-05  3.9651427888766530e-05  3.9646657195439358e-05  3.9689377890444989e-05  3.9694275046117402e-05  3.9708943880995722e-05  3.9733332272570996e-05  3.9767361791793282e-05  3.9810929920509641e-05  3.9863909923614498e-05  3.9926149969424137e-05  3.9997472239516016e-05  4.0077672239459149e-05  4.0166518313842605e-05  4.0263751318353056e-05  4.0369084405933048e-05  4.0482202900257363e-05  4.0602764244255190e-05  4.0730398021594610e-05  4.0864706055555080e-05  4.1005262593662680e-05  4.1151614588745333e-05  4.1303282088273978e-05  4.1459758744359717e-05  4.1620512456806873e-05  4.1784986161335255e-05  4.1952598774602899e-05  4.2122746307091580e-05  4.2294803154364296e-05  4.2468123576765615e-05  4.2642043377398288e-05  4.2815881788234840e-05  4.2988943574531256e-05  4.3160521368261857e-05  4.3329898241973347e-05  4.3496350535054899e-05  4.3659150944636175e-05  4.3817571892765611e-05  4.3970889179727577e-05  4.4118385929843774e-05  4.4259356830414721e-05  4.4393112656232325e-05  4.4518985061152639e-05  4.4636331604626331e-05  4.4744540965220946e-05  4.4843038275756382e-05  4.4931290496772335e-05  4.5008811728002096e-05  4.5075168342874089e-05  4.5129983820381838e-05  4.5172943143405937e-05  4.5203796633884795e-05  4.5222363103787565e-05  4.5228532216721135e-05  4.5222265977625207e-05  4.5203599296156612e-05  4.5172639601272052e-05  4.5129565518044354e-05  4.5074624650582015e-05  4.5008130544831069e-05  4.4930458930083509e-05  4.4842043356745937e-05  4.4743370359488684e-05  4.4634974279105871e-05  4.4517431873697246e-05  4.4391356841082022e-05  4.4257394360997091e-05  4.4116215749143122e-05  4.3968513297077975e-05  4.3814995353752922e-05  4.3656381687339426e-05  4.3493399150791248e-05  4.3326777661881713e-05  4.3157246498481092e-05  4.2985530902551958e-05  4.2812348981486290e-05  4.2638408892595050e-05  4.2464406295327845e-05  4.2291022055679235e-05  4.2118920187800495e-05  4.1948746018723500e-05  4.1781124563043411e-05  4.1616659095216307e-05  4.1455929907702471e-05  4.1299493243489982e-05  4.1147880391579101e-05  4.1001596933839133e-05  4.0861122131321787e-05  4.0726908437679176e-05  4.0599381126820278e-05  4.0478938021333203e-05  4.0365949307422571e-05  4.0260757420974462e-05  4.0163676987511658e-05  4.0074994795638886e-05  3.9994969778178900e-05  3.9923832966409935e-05  3.9861787369966010e-05  3.9809007720596119e-05  3.9765640015701301e-05  3.9731800850368270e-05  3.9707576736915649e-05  3.9693024143166715e-05  3.9688171835193756e-05  3.9740324506559525e-05  3.9745299870258331e-05  3.9760206218529014e-05  3.9784997052478398e-05  3.9819598307002764e-05  3.9863909923614498e-05  3.9917806244128979e-05  3.9981135763229159e-05  4.0053720660133881e-05  4.0135356321258897e-05  4.0225810930804469e-05  4.0324825144458995e-05  4.0432111841319390e-05  4.0547355947130172e-05  4.0670214325856679e-05  4.0800315741355515e-05  4.0937260894807851e-05  4.1080622546320206e-05  4.1229945730797014e-05  4.1384748079067952e-05  4.1544520255514824e-05  4.1708726523260743e-05  4.1876805447514718e-05  4.2048170747057967e-05  4.2222212303271022e-05  4.2398297335697597e-05  4.2575771753087453e-05  4.2753961689309271e-05  4.2932175234595519e-05  4.3109704374330662e-05  4.3285827149989022e-05  4.3459810059710254e-05  4.3630910719066391e-05  4.3798380805360711e-05  4.3961469310688206e-05  4.4119426129237984e-05  4.4271506002121039e-05  4.4416972837569260e-05  4.4555104415008299e-05  4.4685197467841181e-05  4.4806573121745514e-05  4.4918582643315721e-05  4.5020613428939859e-05  4.5112095137399889e-05  4.5192505843809165e-05  4.5261378069464609e-05  4.5318304524418318e-05  4.5362943389335641e-05  4.5395022962335451e-05  4.5414345506135410e-05  4.5420790151177475e-05  4.5414314740711855e-05  4.5394956542306517e-05  4.5362831794318980e-05  4.5318134102325865e-05  4.5261131745909849e-05  4.5192163997229828e-05  4.5111636586591365e-05  4.5020016474690345e-05  4.4917826105158913e-05  4.4805637314334833e-05  4.4684065068577562e-05  4.4553761184514791e-05  4.4415408166407622e-05  4.4269713269720128e-05  4.4117402873318010e-05  4.3959217216614071e-05  4.3795905534137410e-05  4.3628221599639148e-05  4.3456919675644076e-05  4.3282750852508292e-05  4.3106459753330787e-05  4.2928781576974208e-05  4.2750439450273265e-05  4.2572142061471302e-05  4.2394581549265769e-05  4.2218431624887986e-05  4.2044345907844305e-05  4.1872956458906157e-05  4.1704872496398906e-05  4.1540679283679285e-05  4.1380937176884701e-05  4.1226180822637735e-05  4.1076918495492586e-05  4.0933631564632930e-05  4.0796774078782586e-05  4.0666772457558096e-05  4.0544025276618624e-05  4.0428903132940801e-05  4.0321748575278935e-05  4.0222876083204465e-05  4.0132572075838532e-05  4.0051094928350987e-05  3.9978674970773591e-05  3.9915514441292272e-05  3.9861787369966010e-05  3.9817639390895110e-05  3.9783187544749718e-05  3.9758520270782180e-05  3.9743697998082851e-05  3.9738754865828995e-05  3.9800119548673625e-05  3.9805191274623279e-05  3.9820387539894925e-05  3.9845664708859985e-05  3.9880951512749442e-05  3.9926149969424144e-05  3.9981135763229159e-05  4.0045758212616133e-05  4.0119840015527562e-05  4.0203176911650762e-05  4.0295537338855756e-05  4.0396662119804362e-05  4.0506264193782629e-05  4.0624028400732113e-05  4.0749611322805432e-05  4.0882641189674190e-05  4.1022717855330220e-05  4.1169412855404545e-05  4.1322269554792578e-05  4.1480803395574299e-05  4.1644502254918133e-05  4.1812826921974375e-05  4.1985211701852092e-05  4.2161065153821992e-05  4.2339770970121189e-05  4.2520689001405781e-05  4.2703156435273258e-05  4.2886489135615721e-05  4.3069983153082807e-05  4.3252916420755408e-05  4.3434550654246171e-05  4.3614133481649527e-05  4.3790900835629127e-05  4.3964079646762446e-05  4.4132890883110952e-05  4.4296552984679129e-05  4.4454285741658597e-05  4.4605314660803893e-05  4.4748875853791192e-05  4.4884221464159226e-05  4.5010625625161355e-05  4.5127390910034740e-05  4.5233855200120476e-05  4.5329398857117919e-05  4.5413452046470982e-05  4.5485502022970506e-05  4.5545100160849373e-05  4.5591868492500997e-05  4.5625505515384968e-05  4.5645791037565381e-05  4.5652589859144177e-05  4.5645854128541604e-05  4.5625624266543797e-05  4.5592028413378041e-05  4.5545280419974390e-05  4.5485676468826893e-05  4.5413590467473324e-05  4.5329468404305163e-05  4.5233821889120447e-05  4.5127221117920696e-05  4.5010287502853458e-05  4.4883686195266045e-05  4.4748118705076428e-05  4.4604315786368512e-05  4.4453030720910905e-05  4.4295033091736974e-05  4.4131103101143245e-05  4.3962026453925873e-05  4.3788589799038312e-05  4.3611576701951960e-05  4.3431764105918422e-05  4.3249919232543876e-05  4.3066796869638950e-05  4.2883136996004963e-05  4.2699662697391421e-05  4.2517078334106921e-05  4.2336067927648989e-05  4.2157293740422885e-05  4.1981395028570283e-05  4.1808986952784883e-05  4.1640659635611129e-05  4.1476977356120434e-05  4.1318477874162631e-05  4.1165671876789694e-05  4.1019042539159811e-05  4.0879045191461853e-05  4.0746107082331696e-05  4.0620627227996166e-05  4.0502976335059450e-05  4.0393496783477098e-05  4.0292502654860673e-05  4.0200279789887447e-05  4.0117085857522923e-05  4.0043150418786059e-05  3.9978674970773598e-05  3.9923832966409942e-05  3.9878769828262287e-05  3.9843603018222038e-05  3.9818422288912386e-05  3.9803290295893204e-05  3.9798243689736543e-05  3.9868593989072899e-05  3.9873778891069151e-05  3.9889314807093761e-05  3.9915159734179856e-05  3.9951244297673810e-05  3.9997472239516023e-05  4.0053720660133888e-05  4.0119840015527562e-05  4.0195653942661412e-05  4.0280958990525500e-05  4.0375524314184462e-05  4.0479091368249219e-05  4.0591373621902356e-05  4.0712056309815290e-05  4.0840796229861092e-05  4.0977221597409941e-05  4.1120931965809233e-05  4.1271498222596769e-05  4.1428462670671561e-05  4.1591339202892617e-05  4.1759613577381629e-05  4.1932743799262949e