<?xml version="1.0"?>
<VTKFile type="UnstructuredGrid"  version="0.1"  >
<UnstructuredGrid>
<Piece  NumberOfPoints="10201" NumberOfCells="20000">
<Points>
<DataArray  type="Float64"  NumberOfComponents="3"  format="ascii">0 0 0  0.25 0 0  0.5 0 0  0.75 0 0  1 0 0  1.25 0 0  1.5 0 0  1.75 0 0  2 0 0  2.25 0 0  2.5 0 0  2.75 0 0  3 0 0  3.25 0 0  3.5 0 0  3.75 0 0  4 0 0  4.25 0 0  4.5 0 0  4.75 0 0  5 0 0  5.25 0 0  5.5 0 0  5.75 0 0  6 0 0  6.25 0 0  6.5 0 0  6.75 0 0  7 0 0  7.25 0 0  7.5 0 0  7.75 0 0  8 0 0  8.25 0 0  8.5 0 0  8.75 0 0  9 0 0  9.25 0 0  9.5 0 0  9.75 0 0  10 0 0  10.25 0 0  10.5 0 0  10.75 0 0  11 0 0  11.25 0 0  11.5 0 0  11.75 0 0  12 0 0  12.25 0 0  12.5 0 0  12.75 0 0  13 0 0  13.25 0 0  13.5 0 0  13.75 0 0  14 0 0  14.25 0 0  14.5 0 0  14.75 0 0  15 0 0  15.25 0 0  15.5 0 0  15.75 0 0  16 0 0  16.25 0 0  16.5 0 0  16.75 0 0  17 0 0  17.25 0 0  17.5 0 0  17.75 0 0  18 0 0  18.25 0 0  18.5 0 0  18.75 0 0  19 0 0  19.25 0 0  19.5 0 0  19.75 0 0  20 0 0  20.25 0 0  20.5 0 0  20.75 0 0  21 0 0  21.25 0 0  21.5 0 0  21.75 0 0  22 0 0  22.25 0 0  22.5 0 0  22.75 0 0  23 0 0  23.25 0 0  23.5 0 0  23.75 0 0  24 0 0  24.25 0 0  24.5 0 0  24.75 0 0  25 0 0  0 0.25 0  0.25 0.25 0  0.5 0.25 0  0.75 0.25 0  1 0.25 0  1.25 0.25 0  1.5 0.25 0  1.75 0.25 0  2 0.25 0  2.25 0.25 0  2.5 0.25 0  2.75 0.25 0  3 0.25 0  3.25 0.25 0  3.5 0.25 0  3.75 0.25 0  4 0.25 0  4.25 0.25 0  4.5 0.25 0  4.75 0.25 0  5 0.25 0  5.25 0.25 0  5.5 0.25 0  5.75 0.25 0  6 0.25 0  6.25 0.25 0  6.5 0.25 0  6.75 0.25 0  7 0.25 0  7.25 0.25 0  7.5 0.25 0  7.75 0.25 0  8 0.25 0  8.25 0.25 0  8.5 0.25 0  8.75 0.25 0  9 0.25 0  9.25 0.25 0  9.5 0.25 0  9.75 0.25 0  10 0.25 0  10.25 0.25 0  10.5 0.25 0  10.75 0.25 0  11 0.25 0  11.25 0.25 0  11.5 0.25 0  11.75 0.25 0  12 0.25 0  12.25 0.25 0  12.5 0.25 0  12.75 0.25 0  13 0.25 0  13.25 0.25 0  13.5 0.25 0  13.75 0.25 0  14 0.25 0  14.25 0.25 0  14.5 0.25 0  14.75 0.25 0  15 0.25 0  15.25 0.25 0  15.5 0.25 0  15.75 0.25 0  16 0.25 0  16.25 0.25 0  16.5 0.25 0  16.75 0.25 0  17 0.25 0  17.25 0.25 0  17.5 0.25 0  17.75 0.25 0  18 0.25 0  18.25 0.25 0  18.5 0.25 0  18.75 0.25 0  19 0.25 0  19.25 0.25 0  19.5 0.25 0  19.75 0.25 0  20 0.25 0  20.25 0.25 0  20.5 0.25 0  20.75 0.25 0  21 0.25 0  21.25 0.25 0  21.5 0.25 0  21.75 0.25 0  22 0.25 0  22.25 0.25 0  22.5 0.25 0  22.75 0.25 0  23 0.25 0  23.25 0.25 0  23.5 0.25 0  23.75 0.25 0  24 0.25 0  24.25 0.25 0  24.5 0.25 0  24.75 0.25 0  25 0.25 0  0 0.5 0  0.25 0.5 0  0.5 0.5 0  0.75 0.5 0  1 0.5 0  1.25 0.5 0  1.5 0.5 0  1.75 0.5 0  2 0.5 0  2.25 0.5 0  2.5 0.5 0  2.75 0.5 0  3 0.5 0  3.25 0.5 0  3.5 0.5 0  3.75 0.5 0  4 0.5 0  4.25 0.5 0  4.5 0.5 0  4.75 0.5 0  5 0.5 0  5.25 0.5 0  5.5 0.5 0  5.75 0.5 0  6 0.5 0  6.25 0.5 0  6.5 0.5 0  6.75 0.5 0  7 0.5 0  7.25 0.5 0  7.5 0.5 0  7.75 0.5 0  8 0.5 0  8.25 0.5 0  8.5 0.5 0  8.75 0.5 0  9 0.5 0  9.25 0.5 0  9.5 0.5 0  9.75 0.5 0  10 0.5 0  10.25 0.5 0  10.5 0.5 0  10.75 0.5 0  11 0.5 0  11.25 0.5 0  11.5 0.5 0  11.75 0.5 0  12 0.5 0  12.25 0.5 0  12.5 0.5 0  12.75 0.5 0  13 0.5 0  13.25 0.5 0  13.5 0.5 0  13.75 0.5 0  14 0.5 0  14.25 0.5 0  14.5 0.5 0  14.75 0.5 0  15 0.5 0  15.25 0.5 0  15.5 0.5 0  15.75 0.5 0  16 0.5 0  16.25 0.5 0  16.5 0.5 0  16.75 0.5 0  17 0.5 0  17.25 0.5 0  17.5 0.5 0  17.75 0.5 0  18 0.5 0  18.25 0.5 0  18.5 0.5 0  18.75 0.5 0  19 0.5 0  19.25 0.5 0  19.5 0.5 0  19.75 0.5 0  20 0.5 0  20.25 0.5 0  20.5 0.5 0  20.75 0.5 0  21 0.5 0  21.25 0.5 0  21.5 0.5 0  21.75 0.5 0  22 0.5 0  22.25 0.5 0  22.5 0.5 0  22.75 0.5 0  23 0.5 0  23.25 0.5 0  23.5 0.5 0  23.75 0.5 0  24 0.5 0  24.25 0.5 0  24.5 0.5 0  24.75 0.5 0  25 0.5 0  0 0.75 0  0.25 0.75 0  0.5 0.75 0  0.75 0.75 0  1 0.75 0  1.25 0.75 0  1.5 0.75 0  1.75 0.75 0  2 0.75 0  2.25 0.75 0  2.5 0.75 0  2.75 0.75 0  3 0.75 0  3.25 0.75 0  3.5 0.75 0  3.75 0.75 0  4 0.75 0  4.25 0.75 0  4.5 0.75 0  4.75 0.75 0  5 0.75 0  5.25 0.75 0  5.5 0.75 0  5.75 0.75 0  6 0.75 0  6.25 0.75 0  6.5 0.75 0  6.75 0.75 0  7 0.75 0  7.25 0.75 0  7.5 0.75 0  7.75 0.75 0  8 0.75 0  8.25 0.75 0  8.5 0.75 0  8.75 0.75 0  9 0.75 0  9.25 0.75 0  9.5 0.75 0  9.75 0.75 0  10 0.75 0  10.25 0.75 0  10.5 0.75 0  10.75 0.75 0  11 0.75 0  11.25 0.75 0  11.5 0.75 0  11.75 0.75 0  12 0.75 0  12.25 0.75 0  12.5 0.75 0  12.75 0.75 0  13 0.75 0  13.25 0.75 0  13.5 0.75 0  13.75 0.75 0  14 0.75 0  14.25 0.75 0  14.5 0.75 0  14.75 0.75 0  15 0.75 0  15.25 0.75 0  15.5 0.75 0  15.75 0.75 0  16 0.75 0  16.25 0.75 0  16.5 0.75 0  16.75 0.75 0  17 0.75 0  17.25 0.75 0  17.5 0.75 0  17.75 0.75 0  18 0.75 0  18.25 0.75 0  18.5 0.75 0  18.75 0.75 0  19 0.75 0  19.25 0.75 0  19.5 0.75 0  19.75 0.75 0  20 0.75 0  20.25 0.75 0  20.5 0.75 0  20.75 0.75 0  21 0.75 0  21.25 0.75 0  21.5 0.75 0  21.75 0.75 0  22 0.75 0  22.25 0.75 0  22.5 0.75 0  22.75 0.75 0  23 0.75 0  23.25 0.75 0  23.5 0.75 0  23.75 0.75 0  24 0.75 0  24.25 0.75 0  24.5 0.75 0  24.75 0.75 0  25 0.75 0  0 1 0  0.25 1 0  0.5 1 0  0.75 1 0  1 1 0  1.25 1 0  1.5 1 0  1.75 1 0  2 1 0  2.25 1 0  2.5 1 0  2.75 1 0  3 1 0  3.25 1 0  3.5 1 0  3.75 1 0  4 1 0  4.25 1 0  4.5 1 0  4.75 1 0  5 1 0  5.25 1 0  5.5 1 0  5.75 1 0  6 1 0  6.25 1 0  6.5 1 0  6.75 1 0  7 1 0  7.25 1 0  7.5 1 0  7.75 1 0  8 1 0  8.25 1 0  8.5 1 0  8.75 1 0  9 1 0  9.25 1 0  9.5 1 0  9.75 1 0  10 1 0  10.25 1 0  10.5 1 0  10.75 1 0  11 1 0  11.25 1 0  11.5 1 0  11.75 1 0  12 1 0  12.25 1 0  12.5 1 0  12.75 1 0  13 1 0  13.25 1 0  13.5 1 0  13.75 1 0  14 1 0  14.25 1 0  14.5 1 0  14.75 1 0  15 1 0  15.25 1 0  15.5 1 0  15.75 1 0  16 1 0  16.25 1 0  16.5 1 0  16.75 1 0  17 1 0  17.25 1 0  17.5 1 0  17.75 1 0  18 1 0  18.25 1 0  18.5 1 0  18.75 1 0  19 1 0  19.25 1 0  19.5 1 0  19.75 1 0  20 1 0  20.25 1 0  20.5 1 0  20.75 1 0  21 1 0  21.25 1 0  21.5 1 0  21.75 1 0  22 1 0  22.25 1 0  22.5 1 0  22.75 1 0  23 1 0  23.25 1 0  23.5 1 0  23.75 1 0  24 1 0  24.25 1 0  24.5 1 0  24.75 1 0  25 1 0  0 1.25 0  0.25 1.25 0  0.5 1.25 0  0.75 1.25 0  1 1.25 0  1.25 1.25 0  1.5 1.25 0  1.75 1.25 0  2 1.25 0  2.25 1.25 0  2.5 1.25 0  2.75 1.25 0  3 1.25 0  3.25 1.25 0  3.5 1.25 0  3.75 1.25 0  4 1.25 0  4.25 1.25 0  4.5 1.25 0  4.75 1.25 0  5 1.25 0  5.25 1.25 0  5.5 1.25 0  5.75 1.25 0  6 1.25 0  6.25 1.25 0  6.5 1.25 0  6.75 1.25 0  7 1.25 0  7.25 1.25 0  7.5 1.25 0  7.75 1.25 0  8 1.25 0  8.25 1.25 0  8.5 1.25 0  8.75 1.25 0  9 1.25 0  9.25 1.25 0  9.5 1.25 0  9.75 1.25 0  10 1.25 0  10.25 1.25 0  10.5 1.25 0  10.75 1.25 0  11 1.25 0  11.25 1.25 0  11.5 1.25 0  11.75 1.25 0  12 1.25 0  12.25 1.25 0  12.5 1.25 0  12.75 1.25 0  13 1.25 0  13.25 1.25 0  13.5 1.25 0  13.75 1.25 0  14 1.25 0  14.25 1.25 0  14.5 1.25 0  14.75 1.25 0  15 1.25 0  15.25 1.25 0  15.5 1.25 0  15.75 1.25 0  16 1.25 0  16.25 1.25 0  16.5 1.25 0  16.75 1.25 0  17 1.25 0  17.25 1.25 0  17.5 1.25 0  17.75 1.25 0  18 1.25 0  18.25 1.25 0  18.5 1.25 0  18.75 1.25 0  19 1.25 0  19.25 1.25 0  19.5 1.25 0  19.75 1.25 0  20 1.25 0  20.25 1.25 0  20.5 1.25 0  20.75 1.25 0  21 1.25 0  21.25 1.25 0  21.5 1.25 0  21.75 1.25 0  22 1.25 0  22.25 1.25 0  22.5 1.25 0  22.75 1.25 0  23 1.25 0  23.25 1.25 0  23.5 1.25 0  23.75 1.25 0  24 1.25 0  24.25 1.25 0  24.5 1.25 0  24.75 1.25 0  25 1.25 0  0 1.5 0  0.25 1.5 0  0.5 1.5 0  0.75 1.5 0  1 1.5 0  1.25 1.5 0  1.5 1.5 0  1.75 1.5 0  2 1.5 0  2.25 1.5 0  2.5 1.5 0  2.75 1.5 0  3 1.5 0  3.25 1.5 0  3.5 1.5 0  3.75 1.5 0  4 1.5 0  4.25 1.5 0  4.5 1.5 0  4.75 1.5 0  5 1.5 0  5.25 1.5 0  5.5 1.5 0  5.75 1.5 0  6 1.5 0  6.25 1.5 0  6.5 1.5 0  6.75 1.5 0  7 1.5 0  7.25 1.5 0  7.5 1.5 0  7.75 1.5 0  8 1.5 0  8.25 1.5 0  8.5 1.5 0  8.75 1.5 0  9 1.5 0  9.25 1.5 0  9.5 1.5 0  9.75 1.5 0  10 1.5 0  10.25 1.5 0  10.5 1.5 0  10.75 1.5 0  11 1.5 0  11.25 1.5 0  11.5 1.5 0  11.75 1.5 0  12 1.5 0  12.25 1.5 0  12.5 1.5 0  12.75 1.5 0  13 1.5 0  13.25 1.5 0  13.5 1.5 0  13.75 1.5 0  14 1.5 0  14.25 1.5 0  14.5 1.5 0  14.75 1.5 0  15 1.5 0  15.25 1.5 0  15.5 1.5 0  15.75 1.5 0  16 1.5 0  16.25 1.5 0  16.5 1.5 0  16.75 1.5 0  17 1.5 0  17.25 1.5 0  17.5 1.5 0  17.75 1.5 0  18 1.5 0  18.25 1.5 0  18.5 1.5 0  18.75 1.5 0  19 1.5 0  19.25 1.5 0  19.5 1.5 0  19.75 1.5 0  20 1.5 0  20.25 1.5 0  20.5 1.5 0  20.75 1.5 0  21 1.5 0  21.25 1.5 0  21.5 1.5 0  21.75 1.5 0  22 1.5 0  22.25 1.5 0  22.5 1.5 0  22.75 1.5 0  23 1.5 0  23.25 1.5 0  23.5 1.5 0  23.75 1.5 0  24 1.5 0  24.25 1.5 0  24.5 1.5 0  24.75 1.5 0  25 1.5 0  0 1.75 0  0.25 1.75 0  0.5 1.75 0  0.75 1.75 0  1 1.75 0  1.25 1.75 0  1.5 1.75 0  1.75 1.75 0  2 1.75 0  2.25 1.75 0  2.5 1.75 0  2.75 1.75 0  3 1.75 0  3.25 1.75 0  3.5 1.75 0  3.75 1.75 0  4 1.75 0  4.25 1.75 0  4.5 1.75 0  4.75 1.75 0  5 1.75 0  5.25 1.75 0  5.5 1.75 0  5.75 1.75 0  6 1.75 0  6.25 1.75 0  6.5 1.75 0  6.75 1.75 0  7 1.75 0  7.25 1.75 0  7.5 1.75 0  7.75 1.75 0  8 1.75 0  8.25 1.75 0  8.5 1.75 0  8.75 1.75 0  9 1.75 0  9.25 1.75 0  9.5 1.75 0  9.75 1.75 0  10 1.75 0  10.25 1.75 0  10.5 1.75 0  10.75 1.75 0  11 1.75 0  11.25 1.75 0  11.5 1.75 0  11.75 1.75 0  12 1.75 0  12.25 1.75 0  12.5 1.75 0  12.75 1.75 0  13 1.75 0  13.25 1.75 0  13.5 1.75 0  13.75 1.75 0  14 1.75 0  14.25 1.75 0  14.5 1.75 0  14.75 1.75 0  15 1.75 0  15.25 1.75 0  15.5 1.75 0  15.75 1.75 0  16 1.75 0  16.25 1.75 0  16.5 1.75 0  16.75 1.75 0  17 1.75 0  17.25 1.75 0  17.5 1.75 0  17.75 1.75 0  18 1.75 0  18.25 1.75 0  18.5 1.75 0  18.75 1.75 0  19 1.75 0  19.25 1.75 0  19.5 1.75 0  19.75 1.75 0  20 1.75 0  20.25 1.75 0  20.5 1.75 0  20.75 1.75 0  21 1.75 0  21.25 1.75 0  21.5 1.75 0  21.75 1.75 0  22 1.75 0  22.25 1.75 0  22.5 1.75 0  22.75 1.75 0  23 1.75 0  23.25 1.75 0  23.5 1.75 0  23.75 1.75 0  24 1.75 0  24.25 1.75 0  24.5 1.75 0  24.75 1.75 0  25 1.75 0  0 2 0  0.25 2 0  0.5 2 0  0.75 2 0  1 2 0  1.25 2 0  1.5 2 0  1.75 2 0  2 2 0  2.25 2 0  2.5 2 0  2.75 2 0  3 2 0  3.25 2 0  3.5 2 0  3.75 2 0  4 2 0  4.25 2 0  4.5 2 0  4.75 2 0  5 2 0  5.25 2 0  5.5 2 0  5.75 2 0  6 2 0  6.25 2 0  6.5 2 0  6.75 2 0  7 2 0  7.25 2 0  7.5 2 0  7.75 2 0  8 2 0  8.25 2 0  8.5 2 0  8.75 2 0  9 2 0  9.25 2 0  9.5 2 0  9.75 2 0  10 2 0  10.25 2 0  10.5 2 0  10.75 2 0  11 2 0  11.25 2 0 
[...]
<PointData  Scalars="f_26"> 
<DataArray  type="Float64"  Name="f_26"  format="ascii">2.3713508075657780e-05  2.3717927199676531e-05  2.3728221288147519e-05  2.3744211632990577e-05  2.3765161740003864e-05  2.3790060949994100e-05  2.3817773003338865e-05  2.3847148167710181e-05  2.3877112298985620e-05  2.3906731115348927e-05  2.3935248277659235e-05  2.3962099065301564e-05  2.3986904179695919e-05  2.4009449611411995e-05  2.4029658583909162e-05  2.4047560721281488e-05  2.4063262251792283e-05  2.4076919652555865e-05  2.4088717921746181e-05  2.4098853751205110e-05  2.4107523277809516e-05  2.4114913769540814e-05  2.4121198481333147e-05  2.4126533926230776e-05  2.4131058891342859e-05  2.4134894643776352e-05  2.4138145892293541e-05  2.4140902180747957e-05  2.4143239482483336e-05  2.4145221839097182e-05  2.4146902943439747e-05  2.4148327607968480e-05  2.4149533088542387e-05  2.4150550253236755e-05  2.4151404598230746e-05  2.4152117120262756e-05  2.4152705059112275e-05  2.4153182525217418e-05  2.4153561027720216e-05  2.4153849917544052e-05  2.4154056758956353e-05  2.4154187641721957e-05  2.4154247444575463e-05  2.4154240059429159e-05  2.4154168584533299e-05  2.4154035493728717e-05  2.4153842787967504e-05  2.4153592134398948e-05  2.4153284997488747e-05  2.4152922765818490e-05  2.4152506877355554e-05  2.4152038945050583e-05  2.4151520883576746e-05  2.4150955036851012e-05  2.4150344304670994e-05  2.4149692265385124e-05  2.4149003290045298e-05  2.4148282642061828e-05  2.4147536555121416e-05  2.4146772281203304e-05  2.4145998100123953e-05  2.4145223282345440e-05  2.4144457997963222e-05  2.4143713166952196e-05  2.4143000248911015e-05  2.4142330974593696e-05  2.4141717026202313e-05  2.4141169678340275e-05  2.4140699416181854e-05  2.4140315551227888e-05  2.4140025857431640e-05  2.4139836251038360e-05  2.4139750535921146e-05  2.4139770232502585e-05  2.4139894502794162e-05  2.4140120177192277e-05  2.4140441881163346e-05  2.4140852252643606e-05  2.4141342234655049e-05  2.4141901422936598e-05  2.4142518445716781e-05  2.4143181352243731e-05  2.4143877988201438e-05  2.4144596339313875e-05  2.4145324828758614e-05  2.4146052558906143e-05  2.4146769492821471e-05  2.4147466575451934e-05  2.4148135798150231e-05  2.4148770212958889e-05  2.4149363904858943e-05  2.4149911931012555e-05  2.4150410236020631e-05  2.4150855551488694e-05  2.4151245286767141e-05  2.4151577415267367e-05  2.4151850355673212e-05  2.4152062833307752e-05  2.4152213657241163e-05  2.4152301144198938e-05  2.4152320995613806e-05  2.3717745265901347e-05  2.3721305620221356e-05  2.3731275834812599e-05  2.3747036160032381e-05  2.3767759438907605e-05  2.3792421258795206e-05  2.3819889288439068e-05  2.3849021258100699e-05  2.3878750150950923e-05  2.3908147322102402e-05  2.3936460321041876e-05  2.3963126674567402e-05  2.3987767952662717e-05  2.4010169947399390e-05  2.4030254920151576e-05  2.4048051035250198e-05  2.4063662780332901e-05  2.4077244777664179e-05  2.4088980177263821e-05  2.4099063911637082e-05  2.4107690498048389e-05  2.4115045751541148e-05  2.4121301650214222e-05  2.4126613603683274e-05  2.4131119458534844e-05  2.4134939689260177e-05  2.4138178342830949e-05  2.4140924414645948e-05  2.4143253426122287e-05  2.4145229047978030e-05  2.4146904669402012e-05  2.4148324854335319e-05  2.4149526654910917e-05  2.4150540771508465e-05  2.4151392561309288e-05  2.4152102904662027e-05  2.4152688942534825e-05  2.4153164699992191e-05  2.4153541610836008e-05  2.4153828957883372e-05  2.4154034242224839e-05  2.4154163493480923e-05  2.4154221531719160e-05  2.4154212190403109e-05  2.4154138508564826e-05  2.4154002899335136e-05  2.4153807301020180e-05  2.4153553316051652e-05  2.4153242342324655e-05  2.4152875700628732e-05  2.4152454761029132e-05  2.4151981070124353e-05  2.4151456480055954e-05  2.4150883278954292e-05  2.4150264321164512e-05  2.4149603154132944e-05  2.4148904137300079e-05  2.4148172546836743e-05  2.4147414658709049e-05  2.4146637801537457e-05  2.4145850370223084e-05  2.4145061791554898e-05  2.4144282434166672e-05  2.4143523457406465e-05  2.4142796596942144e-05  2.4142113889149969e-05  2.4141487341263320e-05  2.4140928559482430e-05  2.4140448352223342e-05  2.4140056329800812e-05  2.4139760524491698e-05  2.4139567055613878e-05  2.4139479862683447e-05  2.4139500525854667e-05  2.4139628186981871e-05  2.4139859577334174e-05  2.4140189150017995e-05  2.4140609307395916e-05  2.4141110707077980e-05  2.4141682625091210e-05  2.4142313352041191e-05  2.4142990597602271e-05  2.4143701880352706e-05  2.4144434883407793e-05  2.4145177760939872e-05  2.4145919385891139e-05  2.4146649534395683e-05  2.4147359007145343e-05  2.4148039691816616e-05  2.4148684573537099e-05  2.4149287702165848e-05  2.4149844125963490e-05  2.4150349801175873e-05  2.4150801486318361e-05  2.4151196628674673e-05  2.4151533248815862e-05  2.4151809826972625e-05  2.4152025194186613e-05  2.4152178440641059e-05  2.4152268930207109e-05  2.4152296979888779e-05  2.3727523533646084e-05  2.3730761327847561e-05  2.3740297531931479e-05  2.3755539458055631e-05  2.3775659451860040e-05  2.3799648725416112e-05  2.3826400709933044e-05  2.3854801506546882e-05  2.3883810359128198e-05  2.3912520236309158e-05  2.3940194604210135e-05  2.3966281169537455e-05  2.3990406548743945e-05  2.4012357394787237e-05  2.4032053705333508e-05  2.4049519269936186e-05  2.4064852962139706e-05  2.4078203240260351e-05  2.4089747044986861e-05  2.4099673393489903e-05  2.4108171386342493e-05  2.4115422022958482e-05  2.4121593096821904e-05  2.4126836446166178e-05  2.4131286913031575e-05  2.4135062473091884e-05  2.4138265113941642e-05  2.4140982145687857e-05  2.4143287717717919e-05  2.4145244387527031e-05  2.4146904642466157e-05  2.4148312315568054e-05  2.4149503865008685e-05  2.4150509505960633e-05  2.4151354195947613e-05  2.4152058482243034e-05  2.4152639223876171e-05  2.4153110202551332e-05  2.4153482637074912e-05  2.4153765615307769e-05  2.4153966456616586e-05  2.4154091016552316e-05  2.4154143944202525e-05  2.4154128901443165e-05  2.4154048752200735e-05  2.4153905728840487e-05  2.4153701581909576e-05  2.4153437718657795e-05  2.4153115334995102e-05  2.4152735544777652e-05  2.4152299509494007e-05  2.4151808570500783e-05  2.4151264384889049e-05  2.4150669064817235e-05  2.4150025318709888e-05  2.4149336591110566e-05  2.4148607196242769e-05  2.4147842438573356e-05  2.4147048712034333e-05  2.4146233568236409e-05  2.4145405743234011e-05  2.4144575132426961e-05  2.4143752704243822e-05  2.4142950345523634e-05  2.4142180635067570e-05  2.4141456546588313e-05  2.4140791087974715e-05  2.4140196889948080e-05  2.4139685763178631e-05  2.4139268248012430e-05  2.4138953184378302e-05  2.4138747330561840e-05  2.4138655057946910e-05  2.4138678144464552e-05  2.4138815682666727e-05  2.4139064109730332e-05  2.4139417357242510e-05  2.4139867109399972e-05  2.4140403150314906e-05  2.4141013775302545e-05  2.4141686237856645e-05  2.4142407203646707e-05  2.4143163185076545e-05  2.4143940934211225e-05  2.4144727777507822e-05  2.4145511882011980e-05  2.4146282448798141e-05  2.4147029834865573e-05  2.4147745609070817e-05  2.4148422550790995e-05  2.4149054601859067e-05  2.4149636783015612e-05  2.4150165085895740e-05  2.4150636350682188e-05  2.4151048138315965e-05  2.4151398604991085e-05  2.4151686386417731e-05  2.4151910502253359e-05  2.4152070303243240e-05  2.4152165517620221e-05  2.4152196501976341e-05  2.3742730763514036e-05  2.3745739062184939e-05  2.3754755955483558e-05  2.3769252901144720e-05  2.3788447682249968e-05  2.3811378550389470e-05  2.3836989322725884e-05  2.3864215832536611e-05  2.3892062075239345e-05  2.3919657765214670e-05  2.3946293665948917e-05  2.3971435269801073e-05  2.3994718401340218e-05  2.4015931860996627e-05  2.4034992469216894e-05  2.4051917198560321e-05  2.4066795932344552e-05  2.4079767135910732e-05  2.4090997616962470e-05  2.4100666703943429e-05  2.4108954608027869e-05  2.4116034418820717e-05  2.4122067055557373e-05  2.4127198491740522e-05  2.4131558638931206e-05  2.4135261375939669e-05  2.4138405317434318e-05  2.4141075016260522e-05  2.4143342379463474e-05  2.4145268147003571e-05  2.4146903335135666e-05  2.4148290585479774e-05  2.4149465388502609e-05  2.4150457168978439e-05  2.4151290233230156e-05  2.4151984585404309e-05  2.4152556624152005e-05  2.4153019732964829e-05  2.4153384777854463e-05  2.4153660525637022e-05  2.4153853995182321e-05  2.4153970752876559e-05  2.4154015162389759e-05  2.4153990597734162e-05  2.4153899627595035e-05  2.4153744178025142e-05  2.4153525679807922e-05  2.4153245206084269e-05  2.4152903605162234e-05  2.4152501632737002e-05  2.4152040086983078e-05  2.4151519949081338e-05  2.4150942530653806e-05  2.4150309628250669e-05  2.4149623683438897e-05  2.4148887945181548e-05  2.4148106629116537e-05  2.4147285066143499e-05  2.4146429830572708e-05  2.4145548836214398e-05  2.4144651387483576e-05  2.4143748172197653e-05  2.4142851183584774e-05  2.4141973561378024e-05  2.4141129345902334e-05  2.4140333144733906e-05  2.4139599718548213e-05  2.4138943500620102e-05  2.4138378072294857e-05  2.4137915623629945e-05  2.4137566433285272e-05  2.4137338403707789e-05  2.4137236686105932e-05  2.4137263424478936e-05  2.4137417639418352e-05  2.4137695261406105e-05  2.4138089311159357e-05  2.4138590212675762e-05  2.4139186214427034e-05  2.4139863886773136e-05  2.4140608659817401e-05  2.4141405365762612e-05  2.4142238753021785e-05  2.4143093945149612e-05  2.4143956825119139e-05  2.4144814333541630e-05  2.4145654677183088e-05  2.4146467450845398e-05  2.4147243680896954e-05  2.4147975802269944e-05  2.4148657582634209e-05  2.4149284007928481e-05  2.4149851142803829e-05  2.4150355978190580e-05  2.4150796276548537e-05  2.4151170423860570e-05  2.4151477296670757e-05  2.4151716153206361e-05  2.4151886560105466e-05  2.4151988365721673e-05  2.4152021699084175e-05  2.3762725692230917e-05  2.3765505823336487e-05  2.3773915548455731e-05  2.3787483547037468e-05  2.3805490571926567e-05  2.3827043171528439e-05  2.3851155896611137e-05  2.3876832826572601e-05  2.3903138852110472e-05  2.3929253710536477e-05  2.3954505573011192e-05  2.3978384649500517e-05  2.4000539986081342e-05  2.4020764075939221e-05  2.4038970183020655e-05  2.4055166710111494e-05  2.4069431922133807e-05  2.4081891199558366e-05  2.4092697975698762e-05  2.4102018720693680e-05  2.4110021800372635e-05  2.4116869731280004e-05  2.4122714220835083e-05  2.4127693367426138e-05  2.4131930450641857e-05  2.4135533830499958e-05  2.4138597572182700e-05  2.4141202505087936e-05  2.4143417504798961e-05  2.4145300851423188e-05  2.4146901567972163e-05  2.4148260679782502e-05  2.4149412362670115e-05  2.4150384965854029e-05  2.4151201907732700e-05  2.4151882450057183e-05  2.4152442360282846e-05  2.4152894473933275e-05  2.4153249169445789e-05  2.4153514767738890e-05  2.4153697868032355e-05  2.4153803630518733e-05  2.4153836015496631e-05  2.4153797987630527e-05  2.4153691693150037e-05  2.4153518617059847e-05  2.4153279726790871e-05  2.4152975608154602e-05  2.4152606598921123e-05  2.4152172924768839e-05  2.4151674841681827e-05  2.4151112788022472e-05  2.4150487548404820e-05  2.4149800430065211e-05  2.4149053450616578e-05  2.4148249533858915e-05  2.4147392707729146e-05  2.4146488295608228e-05  2.4145543089248327e-05  2.4144565488825445e-05  2.4143565593445738e-05  2.4142555224297613e-05  2.4141547863035664e-05  2.4140558490354155e-05  2.4139603314365992e-05  2.4138699385413639e-05  2.4137864103028235e-05  2.4137114631251708e-05  2.4136467249383398e-05  2.4135936675045230e-05  2.4135535403794194e-05  2.4135273112986459e-05  2.4135156176247243e-05  2.4135187328385949e-05  2.4135365509345306e-05  2.4135685900973332e-05  2.4136140153842922e-05  2.4136716785104575e-05  2.4137401714477363e-05  2.4138178895592308e-05  2.4139030994972011e-05  2.4139940071155506e-05  2.4140888211315779e-05  2.4141858091061881e-05  2.4142833433543012e-05  2.4143799355005404e-05  2.4144742594299022e-05  2.4145651632529146e-05  2.4146516715537232e-05  2.4147329796003259e-05  2.4148084413836432e-05  2.4148775533531965e-05  2.4149399355809295e-05  2.4149953118637219e-05  2.4150434900193966e-05  2.4150843433840142e-05  2.4151177943111309e-05  2.4151438003045966e-05  2.4151623431805755e-05  2.4151734209703448e-05  2.4151770403105351e-05  2.3786607825716255e-05  2.3789146767795365e-05  2.3796875392480852e-05  2.3809374823603181e-05  2.3825996176947681e-05  2.3845927078866440e-05  2.3868267074740957e-05  2.3892102383796486e-05  2.3916571327382786e-05  2.3940914239639951e-05  2.3964504986360385e-05  2.3986864420385474e-05  2.4007658511077328e-05  2.4026685214048852e-05  2.4043854450568740e-05  2.4059165110608492e-05  2.4072682115532971e-05  2.4084515575060260e-05  2.4094803156601142e-05  2.4103696062794239e-05  2.4111348514884121e-05  2.4117910345015041e-05  2.4123522165184127e-05  2.4128312555289854e-05  2.4132396754053550e-05  2.4135876411408901e-05  2.4138840046604542e-05  2.4141363938984910e-05  2.4143513251029831e-05  2.4145343242983021e-05  2.4146900485188771e-05  2.4148224009400378e-05  2.4149346365729177e-05  2.4150294569572044e-05  2.4151090934626294e-05  2.4151753795535509e-05  2.4152298128063257e-05  2.4152736076935398e-05  2.4153077402351293e-05  2.4153329856166768e-05  2.4153499498268557e-05  2.4153590962944295e-05  2.4153607684269926e-05  2.4153552088789023e-05  2.4153425763100571e-05  2.4153229603423274e-05  2.4152963953757733e-05  2.4152628738894111e-05  2.4152223598162499e-05  2.4151748025429629e-05  2.4151201520323930e-05  2.4150583754923236e-05  2.4149894759056654e-05  2.4149135125845157e-05  2.4148306237038071e-05  2.4147410505031085e-05  2.4146451625171988e-05  2.4145434828158147e-05  2.4144367118210578e-05  2.4143257478624558e-05  2.4142117022751092e-05  2.4140959066100614e-05  2.4139799094807083e-05  2.4138654607861594e-05  2.4137544815885100e-05  2.4136490188011493e-05  2.4135511850473205e-05  2.4134630854910723e-05  2.4133867349838633e-05  2.4133239703157647e-05  2.4132763634903835e-05  2.4132451425475253e-05  2.4132311263800229e-05  2.4132346791649493e-05  2.4132556885036019e-05  2.4132935693053287e-05  2.4133472931175318e-05  2.4134154403074493e-05  2.4134962705435166e-05  2.4135878056472097e-05  2.4136879182314262e-05  2.4137944196313758e-05  2.4139051413804245e-05  2.4140180057149819e-05  2.4141310820944423e-05  2.4142426282772899e-05  2.4143511159177163e-05  2.4144552418071303e-05  2.4145539267121064e-05  2.4146463042422326e-05  2.4147317023506897e-05  2.4148096199887645e-05  2.4148797011776126e-05  2.4149417084009855e-05  2.4149954968264224e-05  2.4150409904783873e-05  2.4150781611410534e-05  2.4151070104523003e-05  2.4151275553012523e-05  2.4151398161390380e-05  2.4151438071283939e-05  2.3813350819501671e-05  2.3815639265942500e-05  2.3822637477963622e-05  2.3833977045562661e-05  2.3849082531309913e-05  2.3867229294560221e-05  2.3887610249909884e-05  2.3909402544483072e-05  2.3931826290652838e-05  2.3954189811800698e-05  2.3975918768107652e-05  2.3996569315235019e-05  2.4015827567982071e-05  2.4033498846292824e-05  2.4049490504604137e-05  2.4063791802115607e-05  2.4076453542361997e-05  2.4087569352538543e-05  2.4097259670696586e-05  2.4105658863655071e-05  2.4112905442961719e-05  2.4119135067917538e-05  2.4124475888243334e-05  2.4129045742999478e-05  2.4132950759199961e-05  2.4136284953618045e-05  2.4139130513852584e-05  2.4141558506824852e-05  2.4143629827411141e-05  2.4145396253844560e-05  2.4146901519324530e-05  2.4148182341836549e-05  2.4149269378028505e-05  2.4150188083804320e-05  2.4150959475681564e-05  2.4151600794305581e-05  2.4152126075953983e-05  2.4152546640293752e-05  2.4152871503743194e-05  2.4153107728040637e-05  2.4153260713385577e-05  2.4153334445043851e-05  2.4153331701760992e-05  2.4153254233812039e-05  2.4153102918090815e-05  2.4152877897331706e-05  2.4152578710358201e-05  2.4152204420136216e-05  2.4151753746323657e-05  2.4151225208872665e-05  2.4150617288954768e-05  2.4149928612912868e-05  2.4149158163948147e-05  2.4148305524661428e-05  2.4147371151228513e-05  2.4146356676767530e-05  2.4145265237289329e-05  2.4144101808557452e-05  2.4142873536431476e-05  2.4141590037247070e-05  2.4140263639156864e-05  2.4138909531014907e-05  2.4137545783407438e-05  2.4136193207942735e-05  2.4134875026897429e-05  2.4133616336366703e-05  2.4132443362110729e-05  2.4131382527379957e-05  2.4130459374218746e-05  2.4129697401308366e-05  2.4129116899011937e-05  2.4128733872649980e-05  2.4128559145588022e-05  2.4128597723213369e-05  2.4128848477832614e-05  2.4129304185288187e-05  2.4129951910528790e-05  2.4130773706149324e-05  2.4131747559646032e-05  2.4132848505483335e-05  2.4134049809139746e-05  2.4135324132353751e-05  2.4136644600384155e-05  2.4137985710545244e-05  2.4139324043282194e-05  2.4140638759364269e-05  2.4141911886704491e-05  2.4143128416047140e-05  2.4144276235438584e-05  2.4145345939009159e-05  2.4146330546778455e-05  2.4147225169966946e-05  2.4148026651797844e-05  2.4148733208089752e-05  2.4149344085969534e-05  2.4149859253414689e-05  2.4150279127414783e-05  2.4150604344378212e-05  2.4150835572824240e-05  2.4150973365274152e-05  2.4151018044480152e-05  2.3841901124145071e-05  2.3843937355893851e-05  2.3850183763170893e-05  2.3860320815723496e-05  2.3873846658175934e-05  2.3890126310844742e-05  2.3908449256646243e-05  2.3928087487240903e-05  2.3948347094167862e-05  2.3968608504481525e-05  2.3988352948237902e-05  2.4007175128662815e-05  2.4024783902598831e-05  2.4040993858268053e-05  2.4055711014327621e-05  2.4068915626358530e-05  2.4080644503324170e-05  2.4090974522554530e-05  2.4100008346854220e-05  2.4107862783535799e-05  2.4114659816797177e-05  2.4120520086504031e-05  2.4125558451519122e-05  2.4129881230648361e-05  2.4133584727279309e-05  2.4136754689165318e-05  2.4139466414020552e-05  2.4141785272617143e-05  2.4143767477029797e-05  2.4145460969309273e-05  2.4146906344285260e-05  2.4148137749860644e-05  2.4149183730196623e-05  2.4150067992969589e-05  2.4150810092757172e-05  2.4151426029784906e-05  2.4151928767742157e-05  2.4152328676958512e-05  2.4152633910538179e-05  2.4152850721542973e-05  2.4152983729330930e-05  2.4153036142936989e-05  2.4153009949088829e-05  2.4152906072193208e-05  2.4152724513471239e-05  2.4152464476396193e-05  2.4152124485696330e-05  2.4151702507402022e-05  2.4151196077685114e-05  2.4150602448470804e-05  2.4149918757872494e-05  2.4149142233242960e-05  2.4148270433845697e-05  2.4147301538591799e-05  2.4146234681708781e-05  2.4145070335374789e-05  2.4143810733097825e-05  2.4142460320910868e-05  2.4141026215470727e-05  2.4139518639367622e-05  2.4137951295215723e-05  2.4136341632632798e-05  2.4134710957599185e-05  2.4133084333665513e-05  2.4131490230716091e-05  2.4129959890677826e-05  2.4128526400968123e-05  2.4127223494571612e-05  2.4126084127870806e-05  2.4125138919729646e-05  2.4124414562854973e-05  2.4123932335994679e-05  2.4123706848833811e-05  2.4123745138242639e-05  2.4124046205248003e-05  2.4124601040086460e-05  2.4125393133737234e-05  2.4126399425571322e-05  2.4127591595285473e-05  2.4128937578763938e-05  2.4130403175103980e-05  2.4131953616041828e-05  2.4133554987064393e-05  2.4135175417343115e-05  2.4136785988184772e-05  2.4138361342045141e-05  2.4139880002354078e-05  2.4141324435930085e-05  2.4142680903585780e-05  2.4143939150894201e-05  2.4145091991158472e-05  2.4146134828049874e-05  2.4147065157908709e-05  2.4147882082929554e-05  2.4148585857637990e-05  2.4149177483074833e-05  2.4149658356416938e-05  2.4150029978544855e-05  2.4150293718297081e-05  2.4150450629861694e-05  2.4150501319379663e-05  2.3871257440244729e-05  2.3873047257827720e-05  2.3878546989704904e-05  2.3887483645660640e-05  2.3899426578029938e-05  2.3913828610689858e-05  2.3930074670608987e-05  2.3947531254425105e-05  2.3965590840746888e-05  2.3983707008145019e-05  2.4001418078540062e-05  2.4018359098636775e-05  2.4034263534407391e-05  2.4048957004970869e-05  2.4062345722416232e-05  2.4074402159231291e-05  2.4085150016170693e-05  2.4094649986566645e-05  2.4102987242934041e-05  2.4110261090068654e-05  2.4116576870104722e-05  2.4122039969752450e