<?xml version="1.0"?>
<VTKFile type="UnstructuredGrid"  version="0.1"  >
<UnstructuredGrid>
<Piece  NumberOfPoints="10201" NumberOfCells="20000">
<Points>
<DataArray  type="Float64"  NumberOfComponents="3"  format="ascii">0 0 0  0.25 0 0  0.5 0 0  0.75 0 0  1 0 0  1.25 0 0  1.5 0 0  1.75 0 0  2 0 0  2.25 0 0  2.5 0 0  2.75 0 0  3 0 0  3.25 0 0  3.5 0 0  3.75 0 0  4 0 0  4.25 0 0  4.5 0 0  4.75 0 0  5 0 0  5.25 0 0  5.5 0 0  5.75 0 0  6 0 0  6.25 0 0  6.5 0 0  6.75 0 0  7 0 0  7.25 0 0  7.5 0 0  7.75 0 0  8 0 0  8.25 0 0  8.5 0 0  8.75 0 0  9 0 0  9.25 0 0  9.5 0 0  9.75 0 0  10 0 0  10.25 0 0  10.5 0 0  10.75 0 0  11 0 0  11.25 0 0  11.5 0 0  11.75 0 0  12 0 0  12.25 0 0  12.5 0 0  12.75 0 0  13 0 0  13.25 0 0  13.5 0 0  13.75 0 0  14 0 0  14.25 0 0  14.5 0 0  14.75 0 0  15 0 0  15.25 0 0  15.5 0 0  15.75 0 0  16 0 0  16.25 0 0  16.5 0 0  16.75 0 0  17 0 0  17.25 0 0  17.5 0 0  17.75 0 0  18 0 0  18.25 0 0  18.5 0 0  18.75 0 0  19 0 0  19.25 0 0  19.5 0 0  19.75 0 0  20 0 0  20.25 0 0  20.5 0 0  20.75 0 0  21 0 0  21.25 0 0  21.5 0 0  21.75 0 0  22 0 0  22.25 0 0  22.5 0 0  22.75 0 0  23 0 0  23.25 0 0  23.5 0 0  23.75 0 0  24 0 0  24.25 0 0  24.5 0 0  24.75 0 0  25 0 0  0 0.25 0  0.25 0.25 0  0.5 0.25 0  0.75 0.25 0  1 0.25 0  1.25 0.25 0  1.5 0.25 0  1.75 0.25 0  2 0.25 0  2.25 0.25 0  2.5 0.25 0  2.75 0.25 0  3 0.25 0  3.25 0.25 0  3.5 0.25 0  3.75 0.25 0  4 0.25 0  4.25 0.25 0  4.5 0.25 0  4.75 0.25 0  5 0.25 0  5.25 0.25 0  5.5 0.25 0  5.75 0.25 0  6 0.25 0  6.25 0.25 0  6.5 0.25 0  6.75 0.25 0  7 0.25 0  7.25 0.25 0  7.5 0.25 0  7.75 0.25 0  8 0.25 0  8.25 0.25 0  8.5 0.25 0  8.75 0.25 0  9 0.25 0  9.25 0.25 0  9.5 0.25 0  9.75 0.25 0  10 0.25 0  10.25 0.25 0  10.5 0.25 0  10.75 0.25 0  11 0.25 0  11.25 0.25 0  11.5 0.25 0  11.75 0.25 0  12 0.25 0  12.25 0.25 0  12.5 0.25 0  12.75 0.25 0  13 0.25 0  13.25 0.25 0  13.5 0.25 0  13.75 0.25 0  14 0.25 0  14.25 0.25 0  14.5 0.25 0  14.75 0.25 0  15 0.25 0  15.25 0.25 0  15.5 0.25 0  15.75 0.25 0  16 0.25 0  16.25 0.25 0  16.5 0.25 0  16.75 0.25 0  17 0.25 0  17.25 0.25 0  17.5 0.25 0  17.75 0.25 0  18 0.25 0  18.25 0.25 0  18.5 0.25 0  18.75 0.25 0  19 0.25 0  19.25 0.25 0  19.5 0.25 0  19.75 0.25 0  20 0.25 0  20.25 0.25 0  20.5 0.25 0  20.75 0.25 0  21 0.25 0  21.25 0.25 0  21.5 0.25 0  21.75 0.25 0  22 0.25 0  22.25 0.25 0  22.5 0.25 0  22.75 0.25 0  23 0.25 0  23.25 0.25 0  23.5 0.25 0  23.75 0.25 0  24 0.25 0  24.25 0.25 0  24.5 0.25 0  24.75 0.25 0  25 0.25 0  0 0.5 0  0.25 0.5 0  0.5 0.5 0  0.75 0.5 0  1 0.5 0  1.25 0.5 0  1.5 0.5 0  1.75 0.5 0  2 0.5 0  2.25 0.5 0  2.5 0.5 0  2.75 0.5 0  3 0.5 0  3.25 0.5 0  3.5 0.5 0  3.75 0.5 0  4 0.5 0  4.25 0.5 0  4.5 0.5 0  4.75 0.5 0  5 0.5 0  5.25 0.5 0  5.5 0.5 0  5.75 0.5 0  6 0.5 0  6.25 0.5 0  6.5 0.5 0  6.75 0.5 0  7 0.5 0  7.25 0.5 0  7.5 0.5 0  7.75 0.5 0  8 0.5 0  8.25 0.5 0  8.5 0.5 0  8.75 0.5 0  9 0.5 0  9.25 0.5 0  9.5 0.5 0  9.75 0.5 0  10 0.5 0  10.25 0.5 0  10.5 0.5 0  10.75 0.5 0  11 0.5 0  11.25 0.5 0  11.5 0.5 0  11.75 0.5 0  12 0.5 0  12.25 0.5 0  12.5 0.5 0  12.75 0.5 0  13 0.5 0  13.25 0.5 0  13.5 0.5 0  13.75 0.5 0  14 0.5 0  14.25 0.5 0  14.5 0.5 0  14.75 0.5 0  15 0.5 0  15.25 0.5 0  15.5 0.5 0  15.75 0.5 0  16 0.5 0  16.25 0.5 0  16.5 0.5 0  16.75 0.5 0  17 0.5 0  17.25 0.5 0  17.5 0.5 0  17.75 0.5 0  18 0.5 0  18.25 0.5 0  18.5 0.5 0  18.75 0.5 0  19 0.5 0  19.25 0.5 0  19.5 0.5 0  19.75 0.5 0  20 0.5 0  20.25 0.5 0  20.5 0.5 0  20.75 0.5 0  21 0.5 0  21.25 0.5 0  21.5 0.5 0  21.75 0.5 0  22 0.5 0  22.25 0.5 0  22.5 0.5 0  22.75 0.5 0  23 0.5 0  23.25 0.5 0  23.5 0.5 0  23.75 0.5 0  24 0.5 0  24.25 0.5 0  24.5 0.5 0  24.75 0.5 0  25 0.5 0  0 0.75 0  0.25 0.75 0  0.5 0.75 0  0.75 0.75 0  1 0.75 0  1.25 0.75 0  1.5 0.75 0  1.75 0.75 0  2 0.75 0  2.25 0.75 0  2.5 0.75 0  2.75 0.75 0  3 0.75 0  3.25 0.75 0  3.5 0.75 0  3.75 0.75 0  4 0.75 0  4.25 0.75 0  4.5 0.75 0  4.75 0.75 0  5 0.75 0  5.25 0.75 0  5.5 0.75 0  5.75 0.75 0  6 0.75 0  6.25 0.75 0  6.5 0.75 0  6.75 0.75 0  7 0.75 0  7.25 0.75 0  7.5 0.75 0  7.75 0.75 0  8 0.75 0  8.25 0.75 0  8.5 0.75 0  8.75 0.75 0  9 0.75 0  9.25 0.75 0  9.5 0.75 0  9.75 0.75 0  10 0.75 0  10.25 0.75 0  10.5 0.75 0  10.75 0.75 0  11 0.75 0  11.25 0.75 0  11.5 0.75 0  11.75 0.75 0  12 0.75 0  12.25 0.75 0  12.5 0.75 0  12.75 0.75 0  13 0.75 0  13.25 0.75 0  13.5 0.75 0  13.75 0.75 0  14 0.75 0  14.25 0.75 0  14.5 0.75 0  14.75 0.75 0  15 0.75 0  15.25 0.75 0  15.5 0.75 0  15.75 0.75 0  16 0.75 0  16.25 0.75 0  16.5 0.75 0  16.75 0.75 0  17 0.75 0  17.25 0.75 0  17.5 0.75 0  17.75 0.75 0  18 0.75 0  18.25 0.75 0  18.5 0.75 0  18.75 0.75 0  19 0.75 0  19.25 0.75 0  19.5 0.75 0  19.75 0.75 0  20 0.75 0  20.25 0.75 0  20.5 0.75 0  20.75 0.75 0  21 0.75 0  21.25 0.75 0  21.5 0.75 0  21.75 0.75 0  22 0.75 0  22.25 0.75 0  22.5 0.75 0  22.75 0.75 0  23 0.75 0  23.25 0.75 0  23.5 0.75 0  23.75 0.75 0  24 0.75 0  24.25 0.75 0  24.5 0.75 0  24.75 0.75 0  25 0.75 0  0 1 0  0.25 1 0  0.5 1 0  0.75 1 0  1 1 0  1.25 1 0  1.5 1 0  1.75 1 0  2 1 0  2.25 1 0  2.5 1 0  2.75 1 0  3 1 0  3.25 1 0  3.5 1 0  3.75 1 0  4 1 0  4.25 1 0  4.5 1 0  4.75 1 0  5 1 0  5.25 1 0  5.5 1 0  5.75 1 0  6 1 0  6.25 1 0  6.5 1 0  6.75 1 0  7 1 0  7.25 1 0  7.5 1 0  7.75 1 0  8 1 0  8.25 1 0  8.5 1 0  8.75 1 0  9 1 0  9.25 1 0  9.5 1 0  9.75 1 0  10 1 0  10.25 1 0  10.5 1 0  10.75 1 0  11 1 0  11.25 1 0  11.5 1 0  11.75 1 0  12 1 0  12.25 1 0  12.5 1 0  12.75 1 0  13 1 0  13.25 1 0  13.5 1 0  13.75 1 0  14 1 0  14.25 1 0  14.5 1 0  14.75 1 0  15 1 0  15.25 1 0  15.5 1 0  15.75 1 0  16 1 0  16.25 1 0  16.5 1 0  16.75 1 0  17 1 0  17.25 1 0  17.5 1 0  17.75 1 0  18 1 0  18.25 1 0  18.5 1 0  18.75 1 0  19 1 0  19.25 1 0  19.5 1 0  19.75 1 0  20 1 0  20.25 1 0  20.5 1 0  20.75 1 0  21 1 0  21.25 1 0  21.5 1 0  21.75 1 0  22 1 0  22.25 1 0  22.5 1 0  22.75 1 0  23 1 0  23.25 1 0  23.5 1 0  23.75 1 0  24 1 0  24.25 1 0  24.5 1 0  24.75 1 0  25 1 0  0 1.25 0  0.25 1.25 0  0.5 1.25 0  0.75 1.25 0  1 1.25 0  1.25 1.25 0  1.5 1.25 0  1.75 1.25 0  2 1.25 0  2.25 1.25 0  2.5 1.25 0  2.75 1.25 0  3 1.25 0  3.25 1.25 0  3.5 1.25 0  3.75 1.25 0  4 1.25 0  4.25 1.25 0  4.5 1.25 0  4.75 1.25 0  5 1.25 0  5.25 1.25 0  5.5 1.25 0  5.75 1.25 0  6 1.25 0  6.25 1.25 0  6.5 1.25 0  6.75 1.25 0  7 1.25 0  7.25 1.25 0  7.5 1.25 0  7.75 1.25 0  8 1.25 0  8.25 1.25 0  8.5 1.25 0  8.75 1.25 0  9 1.25 0  9.25 1.25 0  9.5 1.25 0  9.75 1.25 0  10 1.25 0  10.25 1.25 0  10.5 1.25 0  10.75 1.25 0  11 1.25 0  11.25 1.25 0  11.5 1.25 0  11.75 1.25 0  12 1.25 0  12.25 1.25 0  12.5 1.25 0  12.75 1.25 0  13 1.25 0  13.25 1.25 0  13.5 1.25 0  13.75 1.25 0  14 1.25 0  14.25 1.25 0  14.5 1.25 0  14.75 1.25 0  15 1.25 0  15.25 1.25 0  15.5 1.25 0  15.75 1.25 0  16 1.25 0  16.25 1.25 0  16.5 1.25 0  16.75 1.25 0  17 1.25 0  17.25 1.25 0  17.5 1.25 0  17.75 1.25 0  18 1.25 0  18.25 1.25 0  18.5 1.25 0  18.75 1.25 0  19 1.25 0  19.25 1.25 0  19.5 1.25 0  19.75 1.25 0  20 1.25 0  20.25 1.25 0  20.5 1.25 0  20.75 1.25 0  21 1.25 0  21.25 1.25 0  21.5 1.25 0  21.75 1.25 0  22 1.25 0  22.25 1.25 0  22.5 1.25 0  22.75 1.25 0  23 1.25 0  23.25 1.25 0  23.5 1.25 0  23.75 1.25 0  24 1.25 0  24.25 1.25 0  24.5 1.25 0  24.75 1.25 0  25 1.25 0  0 1.5 0  0.25 1.5 0  0.5 1.5 0  0.75 1.5 0  1 1.5 0  1.25 1.5 0  1.5 1.5 0  1.75 1.5 0  2 1.5 0  2.25 1.5 0  2.5 1.5 0  2.75 1.5 0  3 1.5 0  3.25 1.5 0  3.5 1.5 0  3.75 1.5 0  4 1.5 0  4.25 1.5 0  4.5 1.5 0  4.75 1.5 0  5 1.5 0  5.25 1.5 0  5.5 1.5 0  5.75 1.5 0  6 1.5 0  6.25 1.5 0  6.5 1.5 0  6.75 1.5 0  7 1.5 0  7.25 1.5 0  7.5 1.5 0  7.75 1.5 0  8 1.5 0  8.25 1.5 0  8.5 1.5 0  8.75 1.5 0  9 1.5 0  9.25 1.5 0  9.5 1.5 0  9.75 1.5 0  10 1.5 0  10.25 1.5 0  10.5 1.5 0  10.75 1.5 0  11 1.5 0  11.25 1.5 0  11.5 1.5 0  11.75 1.5 0  12 1.5 0  12.25 1.5 0  12.5 1.5 0  12.75 1.5 0  13 1.5 0  13.25 1.5 0  13.5 1.5 0  13.75 1.5 0  14 1.5 0  14.25 1.5 0  14.5 1.5 0  14.75 1.5 0  15 1.5 0  15.25 1.5 0  15.5 1.5 0  15.75 1.5 0  16 1.5 0  16.25 1.5 0  16.5 1.5 0  16.75 1.5 0  17 1.5 0  17.25 1.5 0  17.5 1.5 0  17.75 1.5 0  18 1.5 0  18.25 1.5 0  18.5 1.5 0  18.75 1.5 0  19 1.5 0  19.25 1.5 0  19.5 1.5 0  19.75 1.5 0  20 1.5 0  20.25 1.5 0  20.5 1.5 0  20.75 1.5 0  21 1.5 0  21.25 1.5 0  21.5 1.5 0  21.75 1.5 0  22 1.5 0  22.25 1.5 0  22.5 1.5 0  22.75 1.5 0  23 1.5 0  23.25 1.5 0  23.5 1.5 0  23.75 1.5 0  24 1.5 0  24.25 1.5 0  24.5 1.5 0  24.75 1.5 0  25 1.5 0  0 1.75 0  0.25 1.75 0  0.5 1.75 0  0.75 1.75 0  1 1.75 0  1.25 1.75 0  1.5 1.75 0  1.75 1.75 0  2 1.75 0  2.25 1.75 0  2.5 1.75 0  2.75 1.75 0  3 1.75 0  3.25 1.75 0  3.5 1.75 0  3.75 1.75 0  4 1.75 0  4.25 1.75 0  4.5 1.75 0  4.75 1.75 0  5 1.75 0  5.25 1.75 0  5.5 1.75 0  5.75 1.75 0  6 1.75 0  6.25 1.75 0  6.5 1.75 0  6.75 1.75 0  7 1.75 0  7.25 1.75 0  7.5 1.75 0  7.75 1.75 0  8 1.75 0  8.25 1.75 0  8.5 1.75 0  8.75 1.75 0  9 1.75 0  9.25 1.75 0  9.5 1.75 0  9.75 1.75 0  10 1.75 0  10.25 1.75 0  10.5 1.75 0  10.75 1.75 0  11 1.75 0  11.25 1.75 0  11.5 1.75 0  11.75 1.75 0  12 1.75 0  12.25 1.75 0  12.5 1.75 0  12.75 1.75 0  13 1.75 0  13.25 1.75 0  13.5 1.75 0  13.75 1.75 0  14 1.75 0  14.25 1.75 0  14.5 1.75 0  14.75 1.75 0  15 1.75 0  15.25 1.75 0  15.5 1.75 0  15.75 1.75 0  16 1.75 0  16.25 1.75 0  16.5 1.75 0  16.75 1.75 0  17 1.75 0  17.25 1.75 0  17.5 1.75 0  17.75 1.75 0  18 1.75 0  18.25 1.75 0  18.5 1.75 0  18.75 1.75 0  19 1.75 0  19.25 1.75 0  19.5 1.75 0  19.75 1.75 0  20 1.75 0  20.25 1.75 0  20.5 1.75 0  20.75 1.75 0  21 1.75 0  21.25 1.75 0  21.5 1.75 0  21.75 1.75 0  22 1.75 0  22.25 1.75 0  22.5 1.75 0  22.75 1.75 0  23 1.75 0  23.25 1.75 0  23.5 1.75 0  23.75 1.75 0  24 1.75 0  24.25 1.75 0  24.5 1.75 0  24.75 1.75 0  25 1.75 0  0 2 0  0.25 2 0  0.5 2 0  0.75 2 0  1 2 0  1.25 2 0  1.5 2 0  1.75 2 0  2 2 0  2.25 2 0  2.5 2 0  2.75 2 0  3 2 0  3.25 2 0  3.5 2 0  3.75 2 0  4 2 0  4.25 2 0  4.5 2 0  4.75 2 0  5 2 0  5.25 2 0  5.5 2 0  5.75 2 0  6 2 0  6.25 2 0  6.5 2 0  6.75 2 0  7 2 0  7.25 2 0  7.5 2 0  7.75 2 0  8 2 0  8.25 2 0  8.5 2 0  8.75 2 0  9 2 0  9.25 2 0  9.5 2 0  9.75 2 0  10 2 0  10.25 2 0  10.5 2 0  10.75 2 0  11 2 0  11.25 2 0 
[...]
<PointData  Scalars="f_26"> 
<DataArray  type="Float64"  Name="f_26"  format="ascii">1.8803034623642064e-05  1.8808592051470871e-05  1.8821626551397775e-05  1.8841383286689410e-05  1.8866794178215811e-05  1.8897185206762631e-05  1.8932386771826651e-05  1.8972548879856222e-05  1.9018025211266715e-05  1.9069367401040892e-05  1.9127081286626378e-05  1.9191047643127155e-05  1.9260176191295083e-05  1.9332590641191745e-05  1.9406371110854761e-05  1.9480532156849575e-05  1.9555407067374923e-05  1.9632110245877200e-05  1.9711735623312635e-05  1.9795190579529381e-05  1.9883771891783292e-05  1.9979414739610337e-05  2.0083869829224047e-05  2.0197460367347203e-05  2.0318618649969622e-05  2.0444683382382563e-05  2.0573236658412483e-05  2.0703105659085778e-05  2.0834357804756466e-05  2.0967300509191849e-05  2.1101432428456334e-05  2.1234966121232878e-05  2.1365122167558048e-05  2.1489139218189803e-05  2.1605186995555122e-05  2.1712581425349020e-05  2.1811384520510283e-05  2.1901943990967981e-05  2.1984609081789777e-05  2.2059481079735452e-05  2.2126312933670487e-05  2.2184695911280807e-05  2.2234456518178811e-05  2.2275865770223351e-05  2.2309337017073539e-05  2.2335093816680047e-05  2.2353354223065533e-05  2.2364879255300771e-05  2.2371152502172409e-05  2.2373698589666784e-05  2.2373121977607425e-05  2.2368906001854882e-05  2.2359926655607584e-05  2.2345073263592137e-05  2.2323761890217534e-05  2.2296166386496403e-05  2.2262765293154665e-05  2.2223486574736124e-05  2.2177497313274466e-05  2.2123861204119270e-05  2.2062114679341882e-05  2.1992133501070884e-05  2.1913829764609384e-05  2.1827203878766964e-05  2.1732777659788786e-05  2.1631778501874456e-05  2.1525807788597417e-05  2.1416671937967177e-05  2.1306524929874009e-05  2.1197863966739954e-05  2.1093002114301189e-05  2.0993239277745713e-05  2.0898387371760796e-05  2.0807110586583140e-05  2.0717864798233067e-05  2.0629573912225932e-05  2.0541632111715786e-05  2.0453382383424352e-05  2.0363654121167799e-05  2.0271073485562548e-05  2.0175212802066075e-05  2.0077370632256678e-05  1.9980039870886617e-05  1.9885731068826567e-05  1.9796577251905061e-05  1.9714552983775979e-05  1.9641054765817411e-05  1.9576085739927240e-05  1.9518494735861469e-05  1.9466969706064412e-05  1.9420238071813223e-05  1.9376571232813315e-05  1.9334044412455557e-05  1.9291658188864433e-05  1.9250026414140661e-05  1.9210951166830995e-05  1.9176451124653310e-05  1.9148080638928163e-05  1.9126938279891709e-05  1.9114112082688217e-05  1.9110924179442133e-05  1.8807053975281355e-05  1.8811749688880382e-05  1.8824624165289652e-05  1.8844444905150753e-05  1.8870005944864437e-05  1.8900552120177995e-05  1.8935870960887898e-05  1.8976121205705851e-05  1.9021653977929729e-05  1.9072954229996699e-05  1.9130478677585581e-05  1.9194152064149717e-05  1.9262972588796310e-05  1.9335150197491079e-05  1.9408830212471007e-05  1.9483050807424955e-05  1.9558143416755595e-05  1.9635212383767299e-05  1.9715329912134029e-05  1.9799325884501287e-05  1.9888356919584935e-05  1.9984287515726647e-05  2.0088970793552014e-05  2.0202936318756131e-05  2.0324740235057716e-05  2.0451641825909329e-05  2.0580995198282046e-05  2.0711375250322991e-05  2.0842727666280582e-05  2.0975424758431402e-05  2.1109106554050391e-05  2.1242134246819571e-05  2.1371843243177764e-05  2.1495514029529076e-05  2.1611306889932954e-05  2.1718508636481164e-05  2.1817149187976952e-05  2.1907554362793049e-05  2.1990094611737821e-05  2.2064938722392357e-05  2.2131892343012608e-05  2.2190562325002950e-05  2.2240740275315979e-05  2.2282618746407712e-05  2.2316532142537627e-05  2.2342666200262657e-05  2.2361240970724242e-05  2.2373023090574931e-05  2.2379476934066293e-05  2.2382122125124392e-05  2.2381585345594885e-05  2.2377349531105695e-05  2.2368275039859618e-05  2.2353248292981286e-05  2.2331670057586771e-05  2.2303676270613005e-05  2.2269745659766974e-05  2.2229872191062710e-05  2.2183290369576163e-05  2.2129107316320318e-05  2.2066932698667437e-05  2.1996741038748750e-05  2.1918502995962216e-05  2.1832190212713636e-05  2.1738191089894414e-05  2.1637611284257455e-05  2.1532024490955681e-05  2.1423235127350717e-05  2.1313348454009845e-05  2.1204780677002063e-05  2.1099817595211157e-05  2.0999822039801836e-05  2.0904702966982610e-05  2.0813183880193487e-05  2.0723724904060889e-05  2.0635209861357006e-05  2.0546959403790960e-05  2.0458281549275687e-05  2.0368082366622165e-05  2.0275116057687669e-05  2.0179003870923989e-05  2.0081003679942272e-05  1.9983568326497895e-05  1.9889193057896687e-05  1.9799951237625132e-05  1.9717744980762116e-05  1.9644007126662948e-05  1.9578868611038125e-05  1.9521214056673667e-05  1.9469642504640077e-05  1.9422829316777562e-05  1.9379105915759465e-05  1.9336619740914385e-05  1.9294380948263835e-05  1.9252963061331168e-05  1.9214122639788366e-05  1.9179844087464056e-05  1.9151647139465039e-05  1.9130563656839266e-05  1.9117532438496484e-05  1.9113322016687968e-05  1.8816296180166731e-05  1.8820801139060788e-05  1.8833621702044298e-05  1.8853566838079764e-05  1.8879403599677784e-05  1.8910304027796523e-05  1.8945964987930982e-05  1.8986505306550055e-05  1.9032248330291348e-05  1.9083557240971567e-05  1.9140755483891297e-05  1.9203791005102594e-05  1.9271822458884847e-05  1.9343261723885133e-05  1.9416468894007394e-05  1.9490661362578070e-05  1.9566257452398872e-05  1.9644336221980552e-05  1.9725839427921262e-05  1.9811380166695745e-05  1.9901842381056929e-05  1.9998933195296503e-05  2.0104641033147794e-05  2.0219849926441168e-05  2.0343380165854429e-05  2.0472386329717985e-05  2.0603772204423945e-05  2.0735571273142792e-05  2.0867390825569311e-05  2.0999644384655800e-05  2.1132257454058005e-05  2.1263922379542912e-05  2.1392269588565580e-05  2.1514777411790735e-05  2.1629684310457985e-05  2.1736254334558480e-05  2.1834425258661284e-05  2.1924442371762962e-05  2.2006695825323791e-05  2.2081488010410068e-05  2.2148749597829702e-05  2.2208119499788664e-05  2.2259342767913308e-05  2.2302476711198993e-05  2.2337660496742013e-05  2.2364920357240928e-05  2.2384420049044587e-05  2.2396957604561982e-05  2.2404017226745544e-05  2.2407081092556695e-05  2.2406739702302620e-05  2.2402454381330918e-05  2.2393073041787666e-05  2.2377499472690413e-05  2.2355146187965659e-05  2.2326124695926330e-05  2.2290905410657244e-05  2.2249546740815219e-05  2.2201392264414255e-05  2.2145696079836778e-05  2.2082307969651462e-05  2.2011469816804940e-05  2.1933273196330106e-05  2.1847615012697436e-05  2.1754617571486905e-05  2.1655085359018368e-05  2.1550448511494477e-05  2.1442483529700094e-05  2.1333238320681271e-05  2.1224992225710766e-05  2.1119924174620924e-05  2.1019444482490632e-05  2.0923634185137669e-05  2.0831378460473895e-05  2.0741210283974106e-05  2.0651984952863237e-05  2.0562885835568802e-05  2.0473085867191604e-05  2.0381564836625955e-05  2.0287364021706629e-05  2.0190361830009644e-05  2.0091867105397109e-05  1.9994225051952834e-05  1.9899777023557419e-05  1.9810415813458344e-05  1.9727898767066304e-05  1.9653677154266189e-05  1.9588063245415357e-05  1.9530070055611585e-05  1.9478224531047847e-05  1.9431085918955806e-05  1.9387033986836572e-05  1.9344384230840338e-05  1.9302292562277158e-05  1.9261359725820865e-05  1.9223234166274372e-05  1.9189720242761979e-05  1.9162160319836705e-05  1.9141448852471364e-05  1.9128461553828449e-05  1.9124029415206560e-05  1.8831625591740035e-05  1.8836020337130953e-05  1.8848706808114190e-05  1.8868607590089521e-05  1.8894581125431571e-05  1.8925828761122547e-05  1.8961991283864642e-05  1.9003080366133379e-05  1.9049279972594628e-05  1.9100758656328172e-05  1.9157653614754842e-05  1.9219899728884918e-05  1.9286836018106042e-05  1.9357186792245772e-05  1.9429689471530202e-05  1.9503862079415299e-05  1.9580232301824436e-05  1.9659825341408829e-05  1.9743417953604743e-05  1.9831373585445247e-05  1.9924275833012502e-05  2.0023592822242984e-05  2.0131324575163158e-05  2.0248637349642064e-05  2.0374641840629661e-05  2.0506458531014248e-05  2.0640557389134165e-05  2.0774340797578883e-05  2.0906925795616411e-05  2.1038649885330610e-05  2.1169748857295252e-05  2.1299385858252024e-05  2.1425654362618292e-05  2.1546385596672126e-05  2.1659979028233450e-05  2.1765658098693679e-05  2.1863219266949738e-05  2.1952785504092407e-05  2.2034743916394780e-05  2.2109528919467877e-05  2.2177233321468104e-05  2.2237546720556719e-05  2.2290141636704347e-05  2.2334924201805455e-05  2.2371850164623969e-05  2.2400802186243066e-05  2.2421843884799927e-05  2.2435698348613330e-05  2.2443782617198893e-05  2.2447496153021310e-05  2.2447376845811132e-05  2.2442912464669235e-05  2.2433026614746475e-05  2.2416692067901685e-05  2.2393336134310551e-05  2.2363010353759207e-05  2.2326140666923465e-05  2.2282852539333913e-05  2.2232637045335388e-05  2.2174952898254648e-05  2.2109961837596312e-05  2.2038250856758388e-05  2.1960060987777802e-05  2.1875157532511639e-05  2.1783333770459582e-05  2.1685032018574708e-05  2.1581487891308970e-05  2.1474453491119153e-05  2.1365943074654081e-05  2.1258085420320199e-05  2.1152874232168120e-05  2.1051675520331847e-05  2.0954748973966268e-05  2.0861244681439300e-05  2.0769837700181636e-05  2.0679347651465060e-05  2.0588793012356580e-05  2.0497207713749582e-05  2.0403697128542472e-05  2.0307721322465253e-05  2.0209541259948292e-05  2.0110529984913810e-05  2.0012825276969187e-05  1.9918500897027589e-05  1.9829196343686948e-05  1.9746449405843543e-05  1.9671640092871663e-05  1.9605219748498677e-05  1.9546388349954939e-05  1.9493688238070614e-05  1.9445600982425010e-05  1.9400619775884759e-05  1.9357364533350938e-05  1.9315254708676324e-05  1.9274955268572353e-05  1.9237941012334277e-05  1.9205693799730662e-05  1.9179254411234105e-05  1.9159326940429330e-05  1.9146718551467218e-05  1.9142324551709595e-05  1.8853563998005309e-05  1.8857790152454584e-05  1.8870132382390363e-05  1.8889642421371940e-05  1.8915365168131794e-05  1.8946671876557189e-05  1.8983267481708580e-05  1.9025057000556851e-05  1.9071971818759865e-05  1.9123880711893201e-05  1.9180678736779643e-05  1.9242235111575282e-05  1.9308046941994991e-05  1.9377213711115042e-05  1.9448996172599899e-05  1.9523328961535234e-05  1.9600841333619707e-05  1.9682434627407200e-05  1.9768703144030093e-05  1.9859797701684290e-05  1.9956050150602553e-05  2.0058660903242889e-05  2.0169462988892307e-05  2.0289672791805071e-05  2.0418572639182471e-05  2.0553319732701382e-05  2.0690136772462466e-05  2.0825939177393907e-05  2.0959347665802557e-05  2.1090507503317165e-05  2.1219888569571507e-05  2.1347162219562328e-05  2.1470980628943075e-05  2.1589628391354935e-05  2.1701742764238161e-05  2.1806511734600008e-05  2.1903551303096938e-05  2.1992825608957508e-05  2.2074665700246283e-05  2.2149581917372556e-05  2.2217803528423152e-05  2.2279077183544717e-05  2.2333000769807142e-05  2.2379357849446731e-05  2.2418013724342485e-05  2.2448816476370877e-05  2.2471765190955539e-05  2.2487383028954691e-05  2.2496826441243063e-05  2.2501319583180283e-05  2.2501371193713015e-05  2.2496585303402082e-05  2.2486092493349359e-05  2.2469033478406257e-05  2.2444845434927727e-05  2.2413428204536411e-05  2.2375063610006394e-05  2.2329916311572855e-05  2.2277670997685156e-05  2.2218036268978157e-05  2.2151479887726499e-05  2.2078909488332727e-05  2.2000692431041009e-05  2.1916413502768547e-05  2.1825517793557385e-05  2.1728136484935024e-05  2.1625367603044539e-05  2.1518987616463684e-05  2.1411023105221033e-05  2.1303457760412599e-05  2.1198036584955971e-05  2.1095973274589324e-05  2.0997613294365283e-05  2.0902373773390823e-05  2.0809123569168403e-05  2.0716690487481017e-05  2.0623986906410678e-05  2.0529989932453267e-05  2.0434013717061251e-05  2.0336006515460165e-05  2.0236646898144407e-05  2.0137330558298043e-05  2.0039885915534121e-05  1.9946021958228843e-05  1.9857084399152028e-05  1.9774348023888334e-05  1.9699007115910497e-05  1.9631521662694089e-05  1.9571258677012999e-05  1.9516899448821851e-05  1.9466999851650601e-05  1.9420284990605236e-05  1.9375804328780185e-05  1.9333318480021346e-05  1.9293555977313277e-05  1.9257773730063962e-05  1.9227067432964856e-05  1.9202110429407636e-05  1.9183365485893936e-05  1.9171490602696495e-05  1.9167322260179270e-05  1.8882112339398031e-05  1.8886123381145990e-05  1.8897953702523078e-05  1.8916769588804047e-05  1.8941823896235904e-05  1.8972744994068569e-05  1.9009434063769341e-05  1.9051791802870416e-05  1.9099516155028449e-05  1.9152128485354642e-05  1.9209202242671447e-05  1.9270438794760367e-05  1.9335428046694014e-05  1.9403650945547025e-05  1.9474969307777378e-05  1.9549848045173262e-05  1.9629054847949117e-05  1.9713291396121306e-05  1.9802897079304156e-05  1.9897818212653114e-05  1.9998178423058843e-05  2.0104912209975616e-05  2.0219547240418935e-05  2.0343112331257626e-05  2.0474911951794622e-05  2.0612201806307435e-05  2.0751194779899016e-05  2.0888582859967170e-05  2.1022616629433844e-05  2.1153199052970466e-05  2.1280916531239998e-05  2.1405880144447086e-05  2.1527294689505768e-05  2.1643908340504222e-05  2.1754624208548970e-05  2.1858655604459420e-05  2.1955458848465312e-05  2.2044796551669931e-05  2.2126855596620887e-05  2.2202126197903827e-05  2.2270914639991307e-05  2.2333013061611005e-05  2.2387960433417534e-05  2.2435473262935126e-05  2.2475445381920537e-05  2.2507815364097518e-05  2.2532599600951969e-05  2.2550084693997295e-05  2.2561000607514110e-05  2.2566267929941810e-05  2.2566387110035085e-05  2.2561178063234520e-05  2.2550094167332273e-05  2.2532543745913235e-05  2.2507989688564408e-05  2.2476082533176331e-05  2.2436817835344755e-05  2.2390313729540479e-05  2.2336470045760630e-05  2.2275280605031144e-05  2.2207468163510386e-05  2.2134165262316695e-05  2.2055824012569195e-05  2.1971855128185032e-05  2.1881396529746144e-05  2.1784354529446402e-05  2.1681783028575188e-05  2.1575536846413904e-05  2.1467701690915431e-05  2.1360166799128687e-05  2.1254428805902390e-05  2.1151461994791223e-05  2.1051541224646509e-05  2.0954214727712390e-05  2.0858530848994370e-05  2.0763429267701501e-05  2.0667889537470034e-05  2.0570982779954451e-05  2.0472278348241991e-05  2.0372166548086473e-05  2.0271697244569033e-05  2.0172262408429729e-05  2.0075342590780980e-05  1.9982224851425398e-05  1.9893924252603109e-05  1.9811419404511006e-05  1.9735632739835218e-05  1.9666915015606603e-05  1.9604744158720055e-05  1.9548038154870241e-05  1.9495611672846792e-05  1.9446527587779342e-05  1.9400306796322702e-05  1.9357059639702141e-05  1.9317537188646815e-05  1.9282753735981218e-05  1.9253456860784182e-05  1.9230008011402716e-05  1.9212628200170544e-05  1.9201730211002444e-05  1.9197932854570418e-05  1.8916676769236406e-05  1.8920470231680266e-05  1.8931749523597097e-05  1.8949772944111193e-05  1.8973944950554697e-05  1.9004124237683014e-05  1.9040462877100002e-05  1.9082998591258987e-05  1.9131368959700490e-05  1.9184846296086671e-05  1.9242641880201155e-05  1.9304144847980358e-05  1.9368911268145288e-05  1.9436752269498601e-05  1.9508129606020815e-05  1.9584114866542158e-05  1.9665713824958262e-05  1.9753412594273111e-05  1.9847173248083819e-05  1.9946646217922576e-05  2.0051721500844511e-05  2.0163060538954993e-05  2.0281825239850045e-05  2.0408719424193333e-05  2.0542979903728500e-05  2.0682048635364195e-05  2.0822361638506540e-05  2.0960661419020125e-05  2.1095013948269694e-05  2.1225083625092386e-05  2.1351439195815410e-05  2.1474477227310703e-05  2.1593853953842136e-05  2.1708736914384023e-05  2.1818292781465837e-05  2.1921836865360351e-05  2.2018768478521952e-05  2.2108649130603571e-05  2.2191411451845086e-05  2.2267383895669647e-05  2.2336849088855864e-05  2.2399617187985069e-05  2.2455202726318759e-05  2.2503314170541238e-05  2.2543977104133177e-05  2.2577334558392424e-05  2.2603503627059880e-05  2.2622582331890911e-05  2.2634837310114012e-05  2.2640781332038663e-05  2.2640868775814415e-05  2.2635187743804020e-05  2.2623589910506735e-05  2.2605820622853166e-05  2.2581393121397302e-05  2.2549665681044013e-05  2.2510237854160195e-05  2.2463070848487275e-05  2.2408239751836774e-05  2.2346023775017395e-05  2.2277317501676507e-05  2.2203343451187545e-05  2.2124608722074554e-05  2.2040459462949555e-05  2.1949856456431074e-05  2.1852560661120896e-05  2.1749608062636228e-05  2.1642935418446014e-05  2.1534711027138623e-05  2.1426822385489238e-05  2.1320612828915671e-05  2.1216785244104225e-05  2.1115373327472960e-05  2.1015850834619991e-05  2.0917368464562470e-05  2.0819078432474916e-05  2.0720228871140774e-05  2.0620151277795675e-05  2.0518673492764981e-05  2.0416487197635614e-05  2.0314900620022030e-05  2.0215315251150589e-05  2.0118917616558397e-05  2.0026580758103562e-05  1.9938963187384534e-05  1.9856719307114436e-05  1.9780455038304183e-05  1.9710374007744804e-05  1.9646057628467880e-05  1.9586708248053248e-05  1.9531506705309591e-05  1.9479883401558899e-05  1.9431756940176988e-05  1.9387537473543715e-05  1.9347954747446582e-05  1.9313751262065859e-05  1.9285385325936326e-05  1.9263039115856633e-05  1.9246795213429426e-05  1.9236817773880243e-05  1.9233410758562848e-05  1.8956178599395150e-05  1.8959794903865769e-05  1.8970583903523229e-05  1.8987903031843387e-05  1.9011242112982554e-05  1.9040588155017457e-05  1.9076297036885338e-05  1.9118624839189255e-05  1.9167346712154342e-05  1.9221681085948081e-05  1.9280551339272310e-05  1.9342952893895773e-05  1.9408259743181077e-05  1.9476501491222194e-05  1.9548665988858401e-05  1.9626425988827835e-05  1.9711114327234523e-05  1.9803054161587673e-05  1.9901746379096777e-05  2.0006418420964426e-05  2.0116639182085615e-05  2.0232762102191360e-05  2.0355587749247838e-05  2.0485478173736031e-05  2.0621575720911152e-05  2.0761579016327872e-05  2.0902342566761488e-05  2.1040894397900341e-05  2.1175305253183858e-05  2.1305039501528418e-05  2.1430506479736965e-05  2.1552179889871797e-05  2.1670016751210375e-05  2.1783539239936257e-05  2.1892196740425844e-05  2.1995488355767458e-05  2.2092872874111381e-05  2.2183779131352444e-05  2.2267825182848086e-05  2.2345002325554385e-05  2.2415395410704218e-05  2.2478771425603332e-05  2.2534664547446661e-05  2.2582848610350713e-05  2.2623552994952307e-05  2.2657219068300016e-05  2.2684148287076911e-05  2.2704330798774740e-05  2.2717644437290054e-05  2.2724180735875591e-05  2.2724255345414949e-05  2.2718174277556750e-05  2.2706187115475264e-05  2.2688396322242379e-05  2.2664407243392436e-05  2.2633319572163950e-05  2.2594312628408642e-05  2.2547101481782595e-05  2.2491833314305589e-05  2.2429002721300376e-05  2.2359598697309357e-05  2.2284822849403763e-05  2.2205220291590469e-05  2.2120245958654964e-05  2.2028894762214465e-05  2.1930862711179833e-05  2.1827112224380962e-05  2.1719583438600560e-05  2.1610523087720008e-05  2.1501910934364523e-05  2.1395071659336191e-05  2.1290475142459572e-05  2.1187802692242446e-05  2.1086268682544242e-05  2.0985023997627886e-05  2.0883461063291133e-05  2.0781209674523410e-05  2.0677975362750434e-05  2.0573837550418978e-05  2.0469646707739318e-05  2.0366835571974670e-05  2.0266830211714214e-05  2.0170626872172442e-05  2.0078753083111343e-05  1.9991528746172685e-05  1.9909307747202212e-05  1.9832391924106276e-05  1.9760833594667144e-05  1.9694340065827313e-05  1.9632424021212748e-05  1.9574643449303214e-05  1.9520753061260797e-05  1.9470915940306990e-05  1.9425733759172252e-05  1.9385909557130075e-05  1.9351915103470581e-05  1.9323929914845455e-05  1.9302036327876738e-05  1.9286326196348105e-05  1.9276864597768749e-05  1.9273706975922079e-05  1.8999341978916629e-05  1.9002848254083330e-05  1.9013255741955325e-05  1.9030040954818705e-05  1.9052760045903716e-05  1.9081437157492046e-05  1.9116536215083249e-05  1.9158518033621257e-05  1.9207385758638429e-05  1.9262467901294746e-05  1.9322560129168155e-05  1.9386341817103787e-05  1.9452949759413232e-05  1.9522500234026267e-05  1.9596349547251712e-05  1.9676630738577144e-05  1.9764982698425396e-05  1.9861643994293048e-05  1.9965691749955846e-05  2.0075883943701296e-05  2.0191401628534351e-05  2.0312238153804275e