<?xml version="1.0"?>
<VTKFile type="UnstructuredGrid"  version="0.1"  >
<UnstructuredGrid>
<Piece  NumberOfPoints="10201" NumberOfCells="20000">
<Points>
<DataArray  type="Float64"  NumberOfComponents="3"  format="ascii">0 0 0  0.25 0 0  0.5 0 0  0.75 0 0  1 0 0  1.25 0 0  1.5 0 0  1.75 0 0  2 0 0  2.25 0 0  2.5 0 0  2.75 0 0  3 0 0  3.25 0 0  3.5 0 0  3.75 0 0  4 0 0  4.25 0 0  4.5 0 0  4.75 0 0  5 0 0  5.25 0 0  5.5 0 0  5.75 0 0  6 0 0  6.25 0 0  6.5 0 0  6.75 0 0  7 0 0  7.25 0 0  7.5 0 0  7.75 0 0  8 0 0  8.25 0 0  8.5 0 0  8.75 0 0  9 0 0  9.25 0 0  9.5 0 0  9.75 0 0  10 0 0  10.25 0 0  10.5 0 0  10.75 0 0  11 0 0  11.25 0 0  11.5 0 0  11.75 0 0  12 0 0  12.25 0 0  12.5 0 0  12.75 0 0  13 0 0  13.25 0 0  13.5 0 0  13.75 0 0  14 0 0  14.25 0 0  14.5 0 0  14.75 0 0  15 0 0  15.25 0 0  15.5 0 0  15.75 0 0  16 0 0  16.25 0 0  16.5 0 0  16.75 0 0  17 0 0  17.25 0 0  17.5 0 0  17.75 0 0  18 0 0  18.25 0 0  18.5 0 0  18.75 0 0  19 0 0  19.25 0 0  19.5 0 0  19.75 0 0  20 0 0  20.25 0 0  20.5 0 0  20.75 0 0  21 0 0  21.25 0 0  21.5 0 0  21.75 0 0  22 0 0  22.25 0 0  22.5 0 0  22.75 0 0  23 0 0  23.25 0 0  23.5 0 0  23.75 0 0  24 0 0  24.25 0 0  24.5 0 0  24.75 0 0  25 0 0  0 0.25 0  0.25 0.25 0  0.5 0.25 0  0.75 0.25 0  1 0.25 0  1.25 0.25 0  1.5 0.25 0  1.75 0.25 0  2 0.25 0  2.25 0.25 0  2.5 0.25 0  2.75 0.25 0  3 0.25 0  3.25 0.25 0  3.5 0.25 0  3.75 0.25 0  4 0.25 0  4.25 0.25 0  4.5 0.25 0  4.75 0.25 0  5 0.25 0  5.25 0.25 0  5.5 0.25 0  5.75 0.25 0  6 0.25 0  6.25 0.25 0  6.5 0.25 0  6.75 0.25 0  7 0.25 0  7.25 0.25 0  7.5 0.25 0  7.75 0.25 0  8 0.25 0  8.25 0.25 0  8.5 0.25 0  8.75 0.25 0  9 0.25 0  9.25 0.25 0  9.5 0.25 0  9.75 0.25 0  10 0.25 0  10.25 0.25 0  10.5 0.25 0  10.75 0.25 0  11 0.25 0  11.25 0.25 0  11.5 0.25 0  11.75 0.25 0  12 0.25 0  12.25 0.25 0  12.5 0.25 0  12.75 0.25 0  13 0.25 0  13.25 0.25 0  13.5 0.25 0  13.75 0.25 0  14 0.25 0  14.25 0.25 0  14.5 0.25 0  14.75 0.25 0  15 0.25 0  15.25 0.25 0  15.5 0.25 0  15.75 0.25 0  16 0.25 0  16.25 0.25 0  16.5 0.25 0  16.75 0.25 0  17 0.25 0  17.25 0.25 0  17.5 0.25 0  17.75 0.25 0  18 0.25 0  18.25 0.25 0  18.5 0.25 0  18.75 0.25 0  19 0.25 0  19.25 0.25 0  19.5 0.25 0  19.75 0.25 0  20 0.25 0  20.25 0.25 0  20.5 0.25 0  20.75 0.25 0  21 0.25 0  21.25 0.25 0  21.5 0.25 0  21.75 0.25 0  22 0.25 0  22.25 0.25 0  22.5 0.25 0  22.75 0.25 0  23 0.25 0  23.25 0.25 0  23.5 0.25 0  23.75 0.25 0  24 0.25 0  24.25 0.25 0  24.5 0.25 0  24.75 0.25 0  25 0.25 0  0 0.5 0  0.25 0.5 0  0.5 0.5 0  0.75 0.5 0  1 0.5 0  1.25 0.5 0  1.5 0.5 0  1.75 0.5 0  2 0.5 0  2.25 0.5 0  2.5 0.5 0  2.75 0.5 0  3 0.5 0  3.25 0.5 0  3.5 0.5 0  3.75 0.5 0  4 0.5 0  4.25 0.5 0  4.5 0.5 0  4.75 0.5 0  5 0.5 0  5.25 0.5 0  5.5 0.5 0  5.75 0.5 0  6 0.5 0  6.25 0.5 0  6.5 0.5 0  6.75 0.5 0  7 0.5 0  7.25 0.5 0  7.5 0.5 0  7.75 0.5 0  8 0.5 0  8.25 0.5 0  8.5 0.5 0  8.75 0.5 0  9 0.5 0  9.25 0.5 0  9.5 0.5 0  9.75 0.5 0  10 0.5 0  10.25 0.5 0  10.5 0.5 0  10.75 0.5 0  11 0.5 0  11.25 0.5 0  11.5 0.5 0  11.75 0.5 0  12 0.5 0  12.25 0.5 0  12.5 0.5 0  12.75 0.5 0  13 0.5 0  13.25 0.5 0  13.5 0.5 0  13.75 0.5 0  14 0.5 0  14.25 0.5 0  14.5 0.5 0  14.75 0.5 0  15 0.5 0  15.25 0.5 0  15.5 0.5 0  15.75 0.5 0  16 0.5 0  16.25 0.5 0  16.5 0.5 0  16.75 0.5 0  17 0.5 0  17.25 0.5 0  17.5 0.5 0  17.75 0.5 0  18 0.5 0  18.25 0.5 0  18.5 0.5 0  18.75 0.5 0  19 0.5 0  19.25 0.5 0  19.5 0.5 0  19.75 0.5 0  20 0.5 0  20.25 0.5 0  20.5 0.5 0  20.75 0.5 0  21 0.5 0  21.25 0.5 0  21.5 0.5 0  21.75 0.5 0  22 0.5 0  22.25 0.5 0  22.5 0.5 0  22.75 0.5 0  23 0.5 0  23.25 0.5 0  23.5 0.5 0  23.75 0.5 0  24 0.5 0  24.25 0.5 0  24.5 0.5 0  24.75 0.5 0  25 0.5 0  0 0.75 0  0.25 0.75 0  0.5 0.75 0  0.75 0.75 0  1 0.75 0  1.25 0.75 0  1.5 0.75 0  1.75 0.75 0  2 0.75 0  2.25 0.75 0  2.5 0.75 0  2.75 0.75 0  3 0.75 0  3.25 0.75 0  3.5 0.75 0  3.75 0.75 0  4 0.75 0  4.25 0.75 0  4.5 0.75 0  4.75 0.75 0  5 0.75 0  5.25 0.75 0  5.5 0.75 0  5.75 0.75 0  6 0.75 0  6.25 0.75 0  6.5 0.75 0  6.75 0.75 0  7 0.75 0  7.25 0.75 0  7.5 0.75 0  7.75 0.75 0  8 0.75 0  8.25 0.75 0  8.5 0.75 0  8.75 0.75 0  9 0.75 0  9.25 0.75 0  9.5 0.75 0  9.75 0.75 0  10 0.75 0  10.25 0.75 0  10.5 0.75 0  10.75 0.75 0  11 0.75 0  11.25 0.75 0  11.5 0.75 0  11.75 0.75 0  12 0.75 0  12.25 0.75 0  12.5 0.75 0  12.75 0.75 0  13 0.75 0  13.25 0.75 0  13.5 0.75 0  13.75 0.75 0  14 0.75 0  14.25 0.75 0  14.5 0.75 0  14.75 0.75 0  15 0.75 0  15.25 0.75 0  15.5 0.75 0  15.75 0.75 0  16 0.75 0  16.25 0.75 0  16.5 0.75 0  16.75 0.75 0  17 0.75 0  17.25 0.75 0  17.5 0.75 0  17.75 0.75 0  18 0.75 0  18.25 0.75 0  18.5 0.75 0  18.75 0.75 0  19 0.75 0  19.25 0.75 0  19.5 0.75 0  19.75 0.75 0  20 0.75 0  20.25 0.75 0  20.5 0.75 0  20.75 0.75 0  21 0.75 0  21.25 0.75 0  21.5 0.75 0  21.75 0.75 0  22 0.75 0  22.25 0.75 0  22.5 0.75 0  22.75 0.75 0  23 0.75 0  23.25 0.75 0  23.5 0.75 0  23.75 0.75 0  24 0.75 0  24.25 0.75 0  24.5 0.75 0  24.75 0.75 0  25 0.75 0  0 1 0  0.25 1 0  0.5 1 0  0.75 1 0  1 1 0  1.25 1 0  1.5 1 0  1.75 1 0  2 1 0  2.25 1 0  2.5 1 0  2.75 1 0  3 1 0  3.25 1 0  3.5 1 0  3.75 1 0  4 1 0  4.25 1 0  4.5 1 0  4.75 1 0  5 1 0  5.25 1 0  5.5 1 0  5.75 1 0  6 1 0  6.25 1 0  6.5 1 0  6.75 1 0  7 1 0  7.25 1 0  7.5 1 0  7.75 1 0  8 1 0  8.25 1 0  8.5 1 0  8.75 1 0  9 1 0  9.25 1 0  9.5 1 0  9.75 1 0  10 1 0  10.25 1 0  10.5 1 0  10.75 1 0  11 1 0  11.25 1 0  11.5 1 0  11.75 1 0  12 1 0  12.25 1 0  12.5 1 0  12.75 1 0  13 1 0  13.25 1 0  13.5 1 0  13.75 1 0  14 1 0  14.25 1 0  14.5 1 0  14.75 1 0  15 1 0  15.25 1 0  15.5 1 0  15.75 1 0  16 1 0  16.25 1 0  16.5 1 0  16.75 1 0  17 1 0  17.25 1 0  17.5 1 0  17.75 1 0  18 1 0  18.25 1 0  18.5 1 0  18.75 1 0  19 1 0  19.25 1 0  19.5 1 0  19.75 1 0  20 1 0  20.25 1 0  20.5 1 0  20.75 1 0  21 1 0  21.25 1 0  21.5 1 0  21.75 1 0  22 1 0  22.25 1 0  22.5 1 0  22.75 1 0  23 1 0  23.25 1 0  23.5 1 0  23.75 1 0  24 1 0  24.25 1 0  24.5 1 0  24.75 1 0  25 1 0  0 1.25 0  0.25 1.25 0  0.5 1.25 0  0.75 1.25 0  1 1.25 0  1.25 1.25 0  1.5 1.25 0  1.75 1.25 0  2 1.25 0  2.25 1.25 0  2.5 1.25 0  2.75 1.25 0  3 1.25 0  3.25 1.25 0  3.5 1.25 0  3.75 1.25 0  4 1.25 0  4.25 1.25 0  4.5 1.25 0  4.75 1.25 0  5 1.25 0  5.25 1.25 0  5.5 1.25 0  5.75 1.25 0  6 1.25 0  6.25 1.25 0  6.5 1.25 0  6.75 1.25 0  7 1.25 0  7.25 1.25 0  7.5 1.25 0  7.75 1.25 0  8 1.25 0  8.25 1.25 0  8.5 1.25 0  8.75 1.25 0  9 1.25 0  9.25 1.25 0  9.5 1.25 0  9.75 1.25 0  10 1.25 0  10.25 1.25 0  10.5 1.25 0  10.75 1.25 0  11 1.25 0  11.25 1.25 0  11.5 1.25 0  11.75 1.25 0  12 1.25 0  12.25 1.25 0  12.5 1.25 0  12.75 1.25 0  13 1.25 0  13.25 1.25 0  13.5 1.25 0  13.75 1.25 0  14 1.25 0  14.25 1.25 0  14.5 1.25 0  14.75 1.25 0  15 1.25 0  15.25 1.25 0  15.5 1.25 0  15.75 1.25 0  16 1.25 0  16.25 1.25 0  16.5 1.25 0  16.75 1.25 0  17 1.25 0  17.25 1.25 0  17.5 1.25 0  17.75 1.25 0  18 1.25 0  18.25 1.25 0  18.5 1.25 0  18.75 1.25 0  19 1.25 0  19.25 1.25 0  19.5 1.25 0  19.75 1.25 0  20 1.25 0  20.25 1.25 0  20.5 1.25 0  20.75 1.25 0  21 1.25 0  21.25 1.25 0  21.5 1.25 0  21.75 1.25 0  22 1.25 0  22.25 1.25 0  22.5 1.25 0  22.75 1.25 0  23 1.25 0  23.25 1.25 0  23.5 1.25 0  23.75 1.25 0  24 1.25 0  24.25 1.25 0  24.5 1.25 0  24.75 1.25 0  25 1.25 0  0 1.5 0  0.25 1.5 0  0.5 1.5 0  0.75 1.5 0  1 1.5 0  1.25 1.5 0  1.5 1.5 0  1.75 1.5 0  2 1.5 0  2.25 1.5 0  2.5 1.5 0  2.75 1.5 0  3 1.5 0  3.25 1.5 0  3.5 1.5 0  3.75 1.5 0  4 1.5 0  4.25 1.5 0  4.5 1.5 0  4.75 1.5 0  5 1.5 0  5.25 1.5 0  5.5 1.5 0  5.75 1.5 0  6 1.5 0  6.25 1.5 0  6.5 1.5 0  6.75 1.5 0  7 1.5 0  7.25 1.5 0  7.5 1.5 0  7.75 1.5 0  8 1.5 0  8.25 1.5 0  8.5 1.5 0  8.75 1.5 0  9 1.5 0  9.25 1.5 0  9.5 1.5 0  9.75 1.5 0  10 1.5 0  10.25 1.5 0  10.5 1.5 0  10.75 1.5 0  11 1.5 0  11.25 1.5 0  11.5 1.5 0  11.75 1.5 0  12 1.5 0  12.25 1.5 0  12.5 1.5 0  12.75 1.5 0  13 1.5 0  13.25 1.5 0  13.5 1.5 0  13.75 1.5 0  14 1.5 0  14.25 1.5 0  14.5 1.5 0  14.75 1.5 0  15 1.5 0  15.25 1.5 0  15.5 1.5 0  15.75 1.5 0  16 1.5 0  16.25 1.5 0  16.5 1.5 0  16.75 1.5 0  17 1.5 0  17.25 1.5 0  17.5 1.5 0  17.75 1.5 0  18 1.5 0  18.25 1.5 0  18.5 1.5 0  18.75 1.5 0  19 1.5 0  19.25 1.5 0  19.5 1.5 0  19.75 1.5 0  20 1.5 0  20.25 1.5 0  20.5 1.5 0  20.75 1.5 0  21 1.5 0  21.25 1.5 0  21.5 1.5 0  21.75 1.5 0  22 1.5 0  22.25 1.5 0  22.5 1.5 0  22.75 1.5 0  23 1.5 0  23.25 1.5 0  23.5 1.5 0  23.75 1.5 0  24 1.5 0  24.25 1.5 0  24.5 1.5 0  24.75 1.5 0  25 1.5 0  0 1.75 0  0.25 1.75 0  0.5 1.75 0  0.75 1.75 0  1 1.75 0  1.25 1.75 0  1.5 1.75 0  1.75 1.75 0  2 1.75 0  2.25 1.75 0  2.5 1.75 0  2.75 1.75 0  3 1.75 0  3.25 1.75 0  3.5 1.75 0  3.75 1.75 0  4 1.75 0  4.25 1.75 0  4.5 1.75 0  4.75 1.75 0  5 1.75 0  5.25 1.75 0  5.5 1.75 0  5.75 1.75 0  6 1.75 0  6.25 1.75 0  6.5 1.75 0  6.75 1.75 0  7 1.75 0  7.25 1.75 0  7.5 1.75 0  7.75 1.75 0  8 1.75 0  8.25 1.75 0  8.5 1.75 0  8.75 1.75 0  9 1.75 0  9.25 1.75 0  9.5 1.75 0  9.75 1.75 0  10 1.75 0  10.25 1.75 0  10.5 1.75 0  10.75 1.75 0  11 1.75 0  11.25 1.75 0  11.5 1.75 0  11.75 1.75 0  12 1.75 0  12.25 1.75 0  12.5 1.75 0  12.75 1.75 0  13 1.75 0  13.25 1.75 0  13.5 1.75 0  13.75 1.75 0  14 1.75 0  14.25 1.75 0  14.5 1.75 0  14.75 1.75 0  15 1.75 0  15.25 1.75 0  15.5 1.75 0  15.75 1.75 0  16 1.75 0  16.25 1.75 0  16.5 1.75 0  16.75 1.75 0  17 1.75 0  17.25 1.75 0  17.5 1.75 0  17.75 1.75 0  18 1.75 0  18.25 1.75 0  18.5 1.75 0  18.75 1.75 0  19 1.75 0  19.25 1.75 0  19.5 1.75 0  19.75 1.75 0  20 1.75 0  20.25 1.75 0  20.5 1.75 0  20.75 1.75 0  21 1.75 0  21.25 1.75 0  21.5 1.75 0  21.75 1.75 0  22 1.75 0  22.25 1.75 0  22.5 1.75 0  22.75 1.75 0  23 1.75 0  23.25 1.75 0  23.5 1.75 0  23.75 1.75 0  24 1.75 0  24.25 1.75 0  24.5 1.75 0  24.75 1.75 0  25 1.75 0  0 2 0  0.25 2 0  0.5 2 0  0.75 2 0  1 2 0  1.25 2 0  1.5 2 0  1.75 2 0  2 2 0  2.25 2 0  2.5 2 0  2.75 2 0  3 2 0  3.25 2 0  3.5 2 0  3.75 2 0  4 2 0  4.25 2 0  4.5 2 0  4.75 2 0  5 2 0  5.25 2 0  5.5 2 0  5.75 2 0  6 2 0  6.25 2 0  6.5 2 0  6.75 2 0  7 2 0  7.25 2 0  7.5 2 0  7.75 2 0  8 2 0  8.25 2 0  8.5 2 0  8.75 2 0  9 2 0  9.25 2 0  9.5 2 0  9.75 2 0  10 2 0  10.25 2 0  10.5 2 0  10.75 2 0  11 2 0  11.25 2 0 
[...]
<PointData  Scalars="f_26"> 
<DataArray  type="Float64"  Name="f_26"  format="ascii">2.6846892595170953e-05  2.6816764752412047e-05  2.6747815978003251e-05  2.6635428003195631e-05  2.6477146591680500e-05  2.6272157346647791e-05  2.6022257468657128e-05  2.5733012661506730e-05  2.5414297006348681e-05  2.5079523759441449e-05  2.4744904212000138e-05  2.4428862225144215e-05  2.4146139113134578e-05  2.3893733298139146e-05  2.3669599840778969e-05  2.3476907661123613e-05  2.3318505554154220e-05  2.3195925814311439e-05  2.3108415981793394e-05  2.3052626143153790e-05  2.3023335065934060e-05  2.3014570087782276e-05  2.3020453799660948e-05  2.3035708866511363e-05  2.3056030752897242e-05  2.3078383155370653e-05  2.3101108287885743e-05  2.3123791656718907e-05  2.3146946160392749e-05  2.3171627583773217e-05  2.3199059600381070e-05  2.3230300530848820e-05  2.3265967615538955e-05  2.3306041618512778e-05  2.3349778868147061e-05  2.3395743120800083e-05  2.3441942250272552e-05  2.3486032516109852e-05  2.3525546805902653e-05  2.3558110867653454e-05  2.3581625583735859e-05  2.3594407349476448e-05  2.3595288902975087e-05  2.3583688070394079e-05  2.3559652096876059e-05  2.3523881689000985e-05  2.3477732891596253e-05  2.3423187649641908e-05  2.3362776879817090e-05  2.3299435768455369e-05  2.3236274571603808e-05  2.3176266091103954e-05  2.3121886988200161e-05  2.3074793613090384e-05  2.3035633748106987e-05  2.3004063379630851e-05  2.2978957387216250e-05  2.2958723653980116e-05  2.2941604845407398e-05  2.2925886027884137e-05  2.2909987265303421e-05  2.2892442806676513e-05  2.2871840151205738e-05  2.2846536825255280e-05  2.2814843649181702e-05  2.2772853353859657e-05  2.2719966543196039e-05  2.2632240257491978e-05  2.2543311772903695e-05  2.2206161025278039e-05  2.1852616806398719e-05  2.2113002599403057e-05  2.2463411186231319e-05  2.2849862754513631e-05  2.3251810672213720e-05  2.3645443156852907e-05  2.4009339603955742e-05  2.4328022181244514e-05  2.4594127298853532e-05  2.4807634512936166e-05  2.4973522810523050e-05  2.5099227962029043e-05  2.5192696342554092e-05  2.5261229301593488e-05  2.5310973995781753e-05  2.5346825136682872e-05  2.5372537773358654e-05  2.5390920394852929e-05  2.5404037055025758e-05  2.5413386402380286e-05  2.5420047449076891e-05  2.5424792546681355e-05  2.5428172257539698e-05  2.5430577806847580e-05  2.5432286380864193e-05  2.5433493629357268e-05  2.5434336762740243e-05  2.5434910769157778e-05  2.5435279529405132e-05  2.5435482835188348e-05  2.5435538854632298e-05  2.6807624003504412e-05  2.6783627808653226e-05  2.6715983894812961e-05  2.6603837259689652e-05  2.6445720484664417e-05  2.6241213742933100e-05  2.5992337947825995e-05  2.5704753350662854e-05  2.5388248648404744e-05  2.5056061590789742e-05  2.4724328331850442e-05  2.4411068454848934e-05  2.4130829833485183e-05  2.3880162003264914e-05  2.3656582959010571e-05  2.3464403184240325e-05  2.3306634848250047e-05  2.3185008382385178e-05  2.3098884043180194e-05  2.3044847186465530e-05  2.3017448609710076e-05  2.3010445241429529e-05  2.3017767097736616e-05  2.3034065912174966e-05  2.3055065707993427e-05  2.3077813131870247e-05  2.3100748085830477e-05  2.3123542916607947e-05  2.3146774696004383e-05  2.3171539330627703e-05  2.3199081242859563e-05  2.3230466939462484e-05  2.3266315543112439e-05  2.3306607626509492e-05  2.3350599012619460e-05  2.3396852432960266e-05  2.3443373125561893e-05  2.3487812147917599e-05  2.3527694332931381e-05  2.3560634918004638e-05  2.3584522595789339e-05  2.3597660664876767e-05  2.3598868345232785e-05  2.3587549644968818e-05  2.3563737592826509e-05  2.3528118289440020e-05  2.3482033332280651e-05  2.3427451873819553e-05  2.3366896332041026e-05  2.3303301227174884e-05  2.3239787548665017e-05  2.3179352244678012e-05  2.3124508000170593e-05  2.3076952720476882e-05  2.3037371299855228e-05  2.3005442919270617e-05  2.2980047521045018e-05  2.2959582626272800e-05  2.2942271827651474e-05  2.2926379440077205e-05  2.2910305553042353e-05  2.2892571859889758e-05  2.2871739248879449e-05  2.2846200399919516e-05  2.2814070833975806e-05  2.2772127658233422e-05  2.2717116490647504e-05  2.2634680178167340e-05  2.2527836759271843e-05  2.2230559491419447e-05  2.1862613134111542e-05  2.2112759467317646e-05  2.2462653083346926e-05  2.2848688069612160e-05  2.3250375709975012e-05  2.3644095083708613e-05  2.4008420347605971e-05  2.4327619303433381e-05  2.4594157982790880e-05  2.4807945102780499e-05  2.4973963810172768e-05  2.5099690531259487e-05  2.5193117625966470e-05  2.5261582292063241e-05  2.5311254102779585e-05  2.5347039246777198e-05  2.5372697143031644e-05  2.5391036743966056e-05  2.5404120777680530e-05  2.5413445982599469e-05  2.5420089473932580e-05  2.5424821965187540e-05  2.5428192703499013e-05  2.5430591903081692e-05  2.5432295995140300e-05  2.5433500078865659e-05  2.5434340979383852e-05  2.5434913460616589e-05  2.5435281455776745e-05  2.5435485716346737e-05  2.5435549370431433e-05  2.6711496156491759e-05  2.6688865244326436e-05  2.6621782749058571e-05  2.6509700123956012e-05  2.6351830027276957e-05  2.6148424934697802e-05  2.5902100635879740e-05  2.5618920714919973e-05  2.5308702167202457e-05  2.4984464198067338e-05  2.4662082767528002e-05  2.4358817910169175e-05  2.4086688533760846e-05  2.3840896489696513e-05  2.3621676791105776e-05  2.3433948359144450e-05  2.3280648397001462e-05  2.3163552148096309e-05  2.3081878350713077e-05  2.3031970605079643e-05  2.3008136561524825e-05  2.3003979600682936e-05  2.3013399245812017e-05  2.3031124295004563e-05  2.3053023149542444e-05  2.3076308387143608e-05  2.3099571086918051e-05  2.3122601636282108e-05  2.3146060048668859e-05  2.3171096907485494e-05  2.3198991480877424e-05  2.3230831655776316e-05  2.3267248154681373e-05  2.3308225136812033e-05  2.3353014746233628e-05  2.3400169137760929e-05  2.3447676521904324e-05  2.3493165317671862e-05  2.3534133367547578e-05  2.3568165952474505e-05  2.3593119960602632e-05  2.3607265655088022e-05  2.3609388140877498e-05  2.3598856174788950e-05  2.3575666529192574e-05  2.3540468838481196e-05  2.3494569986409239e-05  2.3439909705128911e-05  2.3378991488329479e-05  2.3314747752814465e-05  2.3250320330349475e-05  2.3188753882689774e-05  2.3132634969613749e-05  2.3083753798168771e-05  2.3042890524943806e-05  2.3009802966048205e-05  2.2983417347785041e-05  2.2962140372461340e-05  2.2944174452930782e-05  2.2927744891565990e-05  2.2911207041538497e-05  2.2893038853690680e-05  2.2871765157160649e-05  2.2845733408108288e-05  2.2813068651517844e-05  2.2770334757150952e-05  2.2714855607352017e-05  2.2630163727138172e-05  2.2524252337847970e-05  2.2220974680051225e-05  2.1865286946346090e-05  2.2112660708614167e-05  2.2461827236369863e-05  2.2847518923469323e-05  2.3249059931218775e-05  2.3642842369919815e-05  2.4007419536342287e-05  2.4326954401020685e-05  2.4593810615945106e-05  2.4807838586967910e-05  2.4974008019980505e-05  2.5099809567931645e-05  2.5193259432692672e-05  2.5261717005365078e-05  2.5311368037413403e-05  2.5347128691376335e-05  2.5372763626838754e-05  2.5391083989800986e-05  2.5404152987268534e-05  2.5413467003794982e-05  2.5420102484244338e-05  2.5424829425163404e-05  2.5428196432213128e-05  2.5430593195505827e-05  2.5432295742889044e-05  2.5433498880495981e-05  2.5434339242487587e-05  2.5434911513027852e-05  2.5435279701036759e-05  2.5435484847614873e-05  2.5435550201176113e-05  2.6554747882026742e-05  2.6532511552141222e-05  2.6465620584797443e-05  2.6353749015811329e-05  2.6196793157416713e-05  2.5995865823578616e-05  2.5754408742449732e-05  2.5479016062741684e-05  2.5179507739743493e-05  2.4868729879106464e-05  2.4562032644765346e-05  2.4275102428936813e-05  2.4015147770724435e-05  2.3777522988169457e-05  2.3566441550985487e-05  2.3386725716360127e-05  2.3241409695561395e-05  2.3132205880675035e-05  2.3057981687681899e-05  2.3014640281718504e-05  2.2996144882377361e-05  2.2995971301626910e-05  2.3008107680612176e-05  2.3027518560286811e-05  2.3050370332895160e-05  2.3074162923060249e-05  2.3097718323822800e-05  2.3120988191158228e-05  2.3144734979762795e-05  2.3170172271499302e-05  2.3198619098892557e-05  2.3231188804452648e-05  2.3268526284668699e-05  2.3310618838726179e-05  2.3356710512649795e-05  2.3405334420615769e-05  2.3454449780573008e-05  2.3501647755253242e-05  2.3544382848695502e-05  2.3580193091714650e-05  2.3606885803734535e-05  2.3622680095304097e-05  2.3626308338069175e-05  2.3617084678238974e-05  2.3594949399390472e-05  2.3560494752047007e-05  2.3514972050597216e-05  2.3460272377418338e-05  2.3398865262983853e-05  2.3333673645353409e-05  2.3267864299786616e-05  2.3204548301273423e-05  2.3146420587365850e-05  2.3095412015398349e-05  2.3052454001588889e-05  2.3017436458880952e-05  2.2989371785706564e-05  2.2966695249588955e-05  2.2947586888637236e-05  2.2930216639730517e-05  2.2912869818839040e-05  2.2893953286107668e-05  2.2871920754775486e-05  2.2845059492505901e-05  2.2811392944366823e-05  2.2767467059000661e-05  2.2710223616551099e-05  2.2623444901643958e-05  2.2513661644986889e-05  2.2202860410099408e-05  2.1866374849959843e-05  2.2112416710939397e-05  2.2460819748862993e-05  2.2846182167148388e-05  2.3247575784521102e-05  2.3641378680354451e-05  2.4006124641311070e-05  2.4325915953185682e-05  2.4593045500967967e-05  2.4807313186704921e-05  2.4973666467413310e-05  2.5099595379443322e-05  2.5193126571494419e-05  2.5261632698424388e-05  2.5311311184657519e-05  2.5347086806021535e-05  2.5372729883009894e-05  2.5391054956490457e-05  2.5404127101393039e-05  2.5413443633633148e-05  2.5420081400292648e-05  2.5424810526325282e-05  2.5428179620151809e-05  2.5430578329014922e-05  2.5432282632521441e-05  2.5433487302637687e-05  2.5434328964096476e-05  2.5434902324337513e-05  2.5435271447884203e-05  2.5435477411567943e-05  2.5435543237307178e-05  2.6337133877503829e-05  2.6315321762297116e-05  2.6248997224452680e-05  2.6138282966412311e-05  2.5983882779293609e-05  2.5787887756340925e-05  2.5554617346332877e-05  2.5291098915879288e-05  2.5007191739963069e-05  2.4715546051900690e-05  2.4430419730793031e-05  2.4164162185377915e-05  2.3917961768644751e-05  2.3691517271143176e-05  2.3492031101149689e-05  2.3323768882686486e-05  2.3189978326454277e-05  2.3092066253948899e-05  2.3028267526221147e-05  2.2993803465273939e-05  2.2982216049065009e-05  2.2986939916084847e-05  2.3002220282500192e-05  2.3023433120587585e-05  2.3047188696771182e-05  2.3071379754626264e-05  2.3095126320072741e-05  2.3118578514552091e-05  2.3142619118721001e-05  2.3168532455617150e-05  2.3197680726220321e-05  2.3231204260192024e-05  2.3269762116411172e-05  2.3313342722984634e-05  2.3361177593542667e-05  2.3411773775882737e-05  2.3463051961860496e-05  2.3512554367877647e-05  2.3557678902149418e-05  2.3595902175200638e-05  2.3624967341514985e-05  2.3643027511998261e-05  2.3648747091633862e-05  2.3641369651896670e-05  2.3620761885942852e-05  2.3587440129725200e-05  2.3542580227785831e-05  2.3488004079680403e-05  2.3426127892563438e-05  2.3359850080321698e-05  2.3292355877069902e-05  2.3226829152548993e-05  2.3166095242284326e-05  2.3112263188776232e-05  2.3066464834474757e-05  2.3028774940215883e-05  2.2998337562017796e-05  2.2973645285995467e-05  2.2952864104008456e-05  2.2934099165316811e-05  2.2915544760979016e-05  2.2895509312750811e-05  2.2872346488047232e-05  2.2844247599492158e-05  2.2809107210755500e-05  2.2763372850366448e-05  2.2703603458020482e-05  2.2613643556029609e-05  2.2497950292790291e-05  2.2179126844571937e-05  2.1867120364763427e-05  2.2111851650677232e-05  2.2459342216438394e-05  2.2844321212809681e-05  2.3245526223019026e-05  2.3639316901973879e-05  2.4004210643097697e-05  2.4324258927319936e-05  2.4591690037644129e-05  2.4806250689656042e-05  2.4972857198644068e-05  2.5098988649523172e-05  2.5192673757321082e-05  2.5261293254875913e-05  2.5311053983241782e-05  2.5346889126057537e-05  2.5372575611871522e-05  2.5390932805557076e-05  2.5404029149533755e-05  2.5413364251315005e-05  2.5420016500744470e-05  2.5424757062929852e-05  2.5428135255889037e-05  2.5430541220759970e-05  2.5432251290036786e-05  2.5433460495649681e-05  2.5434305660059896e-05  2.5434881643678765e-05  2.5435252620452470e-05  2.5435459705086998e-05  2.5435525821054947e-05  2.6062241263128225e-05  2.6041236765606880e-05  2.5976527659713507e-05  2.5868814812526780e-05  2.5719658523277641e-05  2.5532081168815988e-05  2.5311095208822141e-05  2.5064088605259251e-05  2.4801032306241377e-05  2.4533903377450733e-05  2.4274599845552449e-05  2.4029275836614990e-05  2.3797245941356008e-05  2.3585540815177823e-05  2.3401112609491974e-05  2.3247955391304917e-05  2.3129409347626652e-05  2.3046192173833259e-05  2.2995523205466164e-05  2.2971732162506991e-05  2.2968006875767318e-05  2.2977971327197406e-05  2.2996373530815594e-05  2.3019188488755560e-05  2.3043592026493990e-05  2.3067940123367241e-05  2.3091686817060100e-05  2.3115196270946176e-05  2.3139476793752053e-05  2.3165884296750374e-05  2.3195823499253845e-05  2.3230460470154055e-05  2.3270466611925319e-05  2.3315828912511936e-05  2.3365762818521336e-05  2.3418744501512088e-05  2.3472649717121343e-05  2.3524963633112637e-05  2.3573018050422095e-05  2.3614217764213499e-05  2.3646230971356201e-05  2.3667133821323670e-05  2.3675511525923334e-05  2.3670525213941540e-05  2.3651954906439760e-05  2.3620226067576366e-05  2.3576421650195061e-05  2.3522274264115277e-05  2.3460124645255566e-05  2.3392824618731303e-05  2.3323559822036371e-05  2.3255577972033182e-05  2.3191839544507860e-05  2.3134652579448615e-05  2.3085385580016490e-05  2.3044345324209249e-05  2.3010856617614985e-05  2.2983509053310633e-05  2.2960476507487914e-05  2.2939801826028962e-05  2.2919575258573966e-05  2.2897984156645512e-05  2.2873253930104733e-05  2.2843450308580024e-05  2.2806296051393959e-05  2.2758125937639028e-05  2.2694949987697452e-05  2.2600977676695438e-05  2.2477172768459300e-05  2.2152050124105320e-05  2.1868122969414553e-05  2.2110672899905010e-05  2.2456969646788958e-05  2.2841447021849049e-05  2.3242397907972151e-05  2.3636160753526957e-05  2.4001236361543608e-05  2.4321617846210452e-05  2.4589456549650673e-05  2.4804431640249597e-05  2.4971415078697784e-05  2.5097865145597876e-05  2.5191806770378866e-05  2.5260626382693305e-05  2.5310540301591997e-05  2.5346491595354411e-05  2.5372265900759714e-05  2.5390689616947490e-05  2.5403836592271709e-05  2.5413210470068601e-05  2.5419892606111107e-05  2.5424656330406238e-05  2.5428052539942630e-05  2.5430472530863249e-05  2.5432193484409846e-05  2.5433411058612531e-05  2.5434262537335439e-05  2.5434843115496110e-05  2.5435217194651593e-05  2.5435426013914317e-05  2.5435492516536899e-05  2.5738894065339250e-05  2.5719179546481289e-05  2.5657600048174562e-05  2.5555397735679012e-05  2.5414845078222306e-05  2.5239656006267693e-05  2.5035415646418105e-05  2.4809854241911592e-05  2.4572560748091174e-05  2.4333546747611580e-05  2.4099624694034109e-05  2.3871746054663376e-05  2.3656412645786825e-05  2.3463284310283875e-05  2.3297498335040064e-05  2.3163445443185679e-05  2.3064007500365324e-05  2.2998644675929477e-05  2.2963136639959469e-05  2.2950916200143604e-05  2.2955143804967500e-05  2.2970014040535558e-05  2.2991050143599865e-05  2.3014975555231023e-05  2.3039598552656560e-05  2.3063759997732339e-05  2.3087248721594455e-05  2.3110636732034320e-05  2.3135051105946750e-05  2.3161913958082394e-05  2.3192668456953124e-05  2.3228503157459909e-05  2.3270099112955523e-05  2.3317439744831661e-05  2.3369722765435063e-05  2.3425391745283697e-05  2.3482274947373015e-05  2.3537796539936252e-05  2.3589216838393440e-05  2.3633862429584089e-05  2.3669319670369724e-05  2.3693580717074781e-05  2.3705144428684575e-05  2.3703081897689046e-05  2.3687077844214428e-05  2.3657456333281344e-05  2.3615193937283831e-05  2.3561916451075168e-05  2.3499866945350317e-05  2.3431824402430751e-05  2.3360947278704306e-05  2.3290523236425696e-05  2.3223633671164356e-05  2.3162785983145328e-05  2.3109602891680659e-05  2.3064657551560464e-05  2.3027501454926165e-05  2.2996868019751147e-05  2.2970974700411554e-05  2.2947819429933307e-05  2.2925387503511597e-05  2.2901730336921365e-05  2.2874922009962433e-05  2.2842873451419915e-05  2.2803103869178038e-05  2.2751803334096238e-05  2.2684348278613863e-05  2.2585531473918255e-05  2.2451719198521337e-05  2.2124076632209991e-05  2.1869578329347042e-05  2.2108476591141232e-05  2.2453164799054035e-05  2.2836954551287154e-05  2.3237560731617274e-05  2.3631296842442379e-05  2.3996642665778137e-05  2.4317511883978782e-05  2.4585950321929310e-05  2.4801542717401068e-05  2.4969096694779968e-05  2.5096037905804809e-05  2.5190382527453125e-05  2.5259522381639318e-05  2.5309685583977560e-05  2.5345828544030468e-05  2.5371749281826673e-05  2.5390284635064266e-05  2.5403516782597988e-05  2.5412955801044238e-05  2.5419687917174337e-05  2.5424490107379915e-05  2.5427915981987565e-05  2.5430358850515105e-05  2.5432097385805688e-05  2.5433328348005725e-05  2.5434189829428565e-05  2.5434777607011030e-05  2.5435156482698825e-05  2.5435367942631478e-05  2.5435435044508179e-05  2.5381654464730463e-05  2.5363584798194991e-05  2.5306713055359121e-05  2.5212597848016317e-05  2.5084014096235300e-05  2.4925223653011512e-05  2.4742152804153927e-05  2.4542168659725532e-05  2.4332973028914559e-05  2.4119942698679864e-05  2.3904751105514323e-05  2.3694475381925468e-05  2.3500600698560340e-05  2.3329683170571397e-05  2.3186726509247853e-05  2.3076174771221100e-05  2.2999536842519048e-05  2.2954317614994046e-05  2.2934688259945660e-05  2.2933636453326065e-05  2.2944908976706705e-05  2.2963696840629389e-05  2.2986494540194579e-05  2.3010830140148373e-05  2.3035137350161378e-05  2.3058712950382066e-05  2.3081649870319184e-05  2.3104703911206299e-05  2.3129104825327294e-05  2.3156330865754977e-05  2.3187857220697048e-05  2.3224890643832499e-05  2.3268119292558668e-05  2.3317522370951837e-05  2.3372281020706528e-05  2.3430808399390459e-05  2.3490887217716196e-05  2.3549881262063369e-05  2.3604978287138577e-05  2.3653424216664382e-05  2.3692720344118128e-05  2.3720771358980982e-05  2.3735986262221075e-05  2.3737342439788416e-05  2.3724424986631494e-05  2.3697450727100930e-05  2.3657281226747494e-05  2.3605422424657399e-05  2.3544000564503156e-05  2.3475695456906688e-05  2.3403605699908194e-05  2.3331023621274845e-05  2.3261120024101626e-05  2.3196580856599252e-05  2.3139278396424694e-05  2.3090066910151984e-05  2.3048758160254880e-05  2.3014274759089412e-05  2.2984922312415771e-05  2.2958685770903452e-05  2.2933459350930183e-05  2.2907155496605619e-05  2.2877682206984678e-05  2.2842772196960078e-05  2.2799718299322901e-05  2.2744535282359125e-05  2.2671952491503788e-05  2.2567479619593033e-05  2.2422487452419578e-05  2.2097587182270053e-05  2.1871512834331934e-05  2.2104785030842680e-05  2.2447296164452568e-05  2.2830133458590980e-05  2.3230271517738675e-05  2.3623994228206085e-05  2.3989752243741205e-05  2.4311346237012627e-05  2.4580671770547577e-05  2.4797178457681036e-05  2.4965580868759453e-05  2.5093256408572091e-05  2.5188207188895164e-05  2.5257831609711892e-05  2.5308374060601347e-05  2.5344809915311792e-05  2.5370955134267392e-05  2.5389661917077095e-05  2.5403024874763220e-05  2.5412563806460709e-05  2.5419372382591575e-05  2.5424233204237441e-05  2.5427704098193055e-05  2.5430181519107781e-05  2.5431946476815431e-05  2.5433197459595091e-05  2.5434073826398531e-05  2.5434672265826409e-05  2.5435058211491745e-05  2.5435273552570101e-05  2.5435341556153711e-05  2.5009079547756996e-05  2.4992862727615276e-05  2.4942055302791751e-05  2.4858355597158037e-05  2.4744783849631591e-05  2.4605631670158277e-05  2.4446146769970349e-05  2.4271505436387522e-05  2.4084914080435277e-05  2.3888567370569976e-05  2.3691103743634499e-05  2.3504579293184237e-05  2.3336346142141745e-05  2.3191928821509121e-05  2.3076795844563730e-05  2.2994034321759065e-05  2.2942716709672569e-05  2.2917991252422105e-05  2.2913013447259350e-05  2.2921302619713332e-05  2.2937866261858883e-05  2.2959150498336404e