<?xml version="1.0"?>
<VTKFile type="UnstructuredGrid"  version="0.1"  >
<UnstructuredGrid>
<Piece  NumberOfPoints="10201" NumberOfCells="20000">
<Points>
<DataArray  type="Float64"  NumberOfComponents="3"  format="ascii">0 0 0  0.25 0 0  0.5 0 0  0.75 0 0  1 0 0  1.25 0 0  1.5 0 0  1.75 0 0  2 0 0  2.25 0 0  2.5 0 0  2.75 0 0  3 0 0  3.25 0 0  3.5 0 0  3.75 0 0  4 0 0  4.25 0 0  4.5 0 0  4.75 0 0  5 0 0  5.25 0 0  5.5 0 0  5.75 0 0  6 0 0  6.25 0 0  6.5 0 0  6.75 0 0  7 0 0  7.25 0 0  7.5 0 0  7.75 0 0  8 0 0  8.25 0 0  8.5 0 0  8.75 0 0  9 0 0  9.25 0 0  9.5 0 0  9.75 0 0  10 0 0  10.25 0 0  10.5 0 0  10.75 0 0  11 0 0  11.25 0 0  11.5 0 0  11.75 0 0  12 0 0  12.25 0 0  12.5 0 0  12.75 0 0  13 0 0  13.25 0 0  13.5 0 0  13.75 0 0  14 0 0  14.25 0 0  14.5 0 0  14.75 0 0  15 0 0  15.25 0 0  15.5 0 0  15.75 0 0  16 0 0  16.25 0 0  16.5 0 0  16.75 0 0  17 0 0  17.25 0 0  17.5 0 0  17.75 0 0  18 0 0  18.25 0 0  18.5 0 0  18.75 0 0  19 0 0  19.25 0 0  19.5 0 0  19.75 0 0  20 0 0  20.25 0 0  20.5 0 0  20.75 0 0  21 0 0  21.25 0 0  21.5 0 0  21.75 0 0  22 0 0  22.25 0 0  22.5 0 0  22.75 0 0  23 0 0  23.25 0 0  23.5 0 0  23.75 0 0  24 0 0  24.25 0 0  24.5 0 0  24.75 0 0  25 0 0  0 0.25 0  0.25 0.25 0  0.5 0.25 0  0.75 0.25 0  1 0.25 0  1.25 0.25 0  1.5 0.25 0  1.75 0.25 0  2 0.25 0  2.25 0.25 0  2.5 0.25 0  2.75 0.25 0  3 0.25 0  3.25 0.25 0  3.5 0.25 0  3.75 0.25 0  4 0.25 0  4.25 0.25 0  4.5 0.25 0  4.75 0.25 0  5 0.25 0  5.25 0.25 0  5.5 0.25 0  5.75 0.25 0  6 0.25 0  6.25 0.25 0  6.5 0.25 0  6.75 0.25 0  7 0.25 0  7.25 0.25 0  7.5 0.25 0  7.75 0.25 0  8 0.25 0  8.25 0.25 0  8.5 0.25 0  8.75 0.25 0  9 0.25 0  9.25 0.25 0  9.5 0.25 0  9.75 0.25 0  10 0.25 0  10.25 0.25 0  10.5 0.25 0  10.75 0.25 0  11 0.25 0  11.25 0.25 0  11.5 0.25 0  11.75 0.25 0  12 0.25 0  12.25 0.25 0  12.5 0.25 0  12.75 0.25 0  13 0.25 0  13.25 0.25 0  13.5 0.25 0  13.75 0.25 0  14 0.25 0  14.25 0.25 0  14.5 0.25 0  14.75 0.25 0  15 0.25 0  15.25 0.25 0  15.5 0.25 0  15.75 0.25 0  16 0.25 0  16.25 0.25 0  16.5 0.25 0  16.75 0.25 0  17 0.25 0  17.25 0.25 0  17.5 0.25 0  17.75 0.25 0  18 0.25 0  18.25 0.25 0  18.5 0.25 0  18.75 0.25 0  19 0.25 0  19.25 0.25 0  19.5 0.25 0  19.75 0.25 0  20 0.25 0  20.25 0.25 0  20.5 0.25 0  20.75 0.25 0  21 0.25 0  21.25 0.25 0  21.5 0.25 0  21.75 0.25 0  22 0.25 0  22.25 0.25 0  22.5 0.25 0  22.75 0.25 0  23 0.25 0  23.25 0.25 0  23.5 0.25 0  23.75 0.25 0  24 0.25 0  24.25 0.25 0  24.5 0.25 0  24.75 0.25 0  25 0.25 0  0 0.5 0  0.25 0.5 0  0.5 0.5 0  0.75 0.5 0  1 0.5 0  1.25 0.5 0  1.5 0.5 0  1.75 0.5 0  2 0.5 0  2.25 0.5 0  2.5 0.5 0  2.75 0.5 0  3 0.5 0  3.25 0.5 0  3.5 0.5 0  3.75 0.5 0  4 0.5 0  4.25 0.5 0  4.5 0.5 0  4.75 0.5 0  5 0.5 0  5.25 0.5 0  5.5 0.5 0  5.75 0.5 0  6 0.5 0  6.25 0.5 0  6.5 0.5 0  6.75 0.5 0  7 0.5 0  7.25 0.5 0  7.5 0.5 0  7.75 0.5 0  8 0.5 0  8.25 0.5 0  8.5 0.5 0  8.75 0.5 0  9 0.5 0  9.25 0.5 0  9.5 0.5 0  9.75 0.5 0  10 0.5 0  10.25 0.5 0  10.5 0.5 0  10.75 0.5 0  11 0.5 0  11.25 0.5 0  11.5 0.5 0  11.75 0.5 0  12 0.5 0  12.25 0.5 0  12.5 0.5 0  12.75 0.5 0  13 0.5 0  13.25 0.5 0  13.5 0.5 0  13.75 0.5 0  14 0.5 0  14.25 0.5 0  14.5 0.5 0  14.75 0.5 0  15 0.5 0  15.25 0.5 0  15.5 0.5 0  15.75 0.5 0  16 0.5 0  16.25 0.5 0  16.5 0.5 0  16.75 0.5 0  17 0.5 0  17.25 0.5 0  17.5 0.5 0  17.75 0.5 0  18 0.5 0  18.25 0.5 0  18.5 0.5 0  18.75 0.5 0  19 0.5 0  19.25 0.5 0  19.5 0.5 0  19.75 0.5 0  20 0.5 0  20.25 0.5 0  20.5 0.5 0  20.75 0.5 0  21 0.5 0  21.25 0.5 0  21.5 0.5 0  21.75 0.5 0  22 0.5 0  22.25 0.5 0  22.5 0.5 0  22.75 0.5 0  23 0.5 0  23.25 0.5 0  23.5 0.5 0  23.75 0.5 0  24 0.5 0  24.25 0.5 0  24.5 0.5 0  24.75 0.5 0  25 0.5 0  0 0.75 0  0.25 0.75 0  0.5 0.75 0  0.75 0.75 0  1 0.75 0  1.25 0.75 0  1.5 0.75 0  1.75 0.75 0  2 0.75 0  2.25 0.75 0  2.5 0.75 0  2.75 0.75 0  3 0.75 0  3.25 0.75 0  3.5 0.75 0  3.75 0.75 0  4 0.75 0  4.25 0.75 0  4.5 0.75 0  4.75 0.75 0  5 0.75 0  5.25 0.75 0  5.5 0.75 0  5.75 0.75 0  6 0.75 0  6.25 0.75 0  6.5 0.75 0  6.75 0.75 0  7 0.75 0  7.25 0.75 0  7.5 0.75 0  7.75 0.75 0  8 0.75 0  8.25 0.75 0  8.5 0.75 0  8.75 0.75 0  9 0.75 0  9.25 0.75 0  9.5 0.75 0  9.75 0.75 0  10 0.75 0  10.25 0.75 0  10.5 0.75 0  10.75 0.75 0  11 0.75 0  11.25 0.75 0  11.5 0.75 0  11.75 0.75 0  12 0.75 0  12.25 0.75 0  12.5 0.75 0  12.75 0.75 0  13 0.75 0  13.25 0.75 0  13.5 0.75 0  13.75 0.75 0  14 0.75 0  14.25 0.75 0  14.5 0.75 0  14.75 0.75 0  15 0.75 0  15.25 0.75 0  15.5 0.75 0  15.75 0.75 0  16 0.75 0  16.25 0.75 0  16.5 0.75 0  16.75 0.75 0  17 0.75 0  17.25 0.75 0  17.5 0.75 0  17.75 0.75 0  18 0.75 0  18.25 0.75 0  18.5 0.75 0  18.75 0.75 0  19 0.75 0  19.25 0.75 0  19.5 0.75 0  19.75 0.75 0  20 0.75 0  20.25 0.75 0  20.5 0.75 0  20.75 0.75 0  21 0.75 0  21.25 0.75 0  21.5 0.75 0  21.75 0.75 0  22 0.75 0  22.25 0.75 0  22.5 0.75 0  22.75 0.75 0  23 0.75 0  23.25 0.75 0  23.5 0.75 0  23.75 0.75 0  24 0.75 0  24.25 0.75 0  24.5 0.75 0  24.75 0.75 0  25 0.75 0  0 1 0  0.25 1 0  0.5 1 0  0.75 1 0  1 1 0  1.25 1 0  1.5 1 0  1.75 1 0  2 1 0  2.25 1 0  2.5 1 0  2.75 1 0  3 1 0  3.25 1 0  3.5 1 0  3.75 1 0  4 1 0  4.25 1 0  4.5 1 0  4.75 1 0  5 1 0  5.25 1 0  5.5 1 0  5.75 1 0  6 1 0  6.25 1 0  6.5 1 0  6.75 1 0  7 1 0  7.25 1 0  7.5 1 0  7.75 1 0  8 1 0  8.25 1 0  8.5 1 0  8.75 1 0  9 1 0  9.25 1 0  9.5 1 0  9.75 1 0  10 1 0  10.25 1 0  10.5 1 0  10.75 1 0  11 1 0  11.25 1 0  11.5 1 0  11.75 1 0  12 1 0  12.25 1 0  12.5 1 0  12.75 1 0  13 1 0  13.25 1 0  13.5 1 0  13.75 1 0  14 1 0  14.25 1 0  14.5 1 0  14.75 1 0  15 1 0  15.25 1 0  15.5 1 0  15.75 1 0  16 1 0  16.25 1 0  16.5 1 0  16.75 1 0  17 1 0  17.25 1 0  17.5 1 0  17.75 1 0  18 1 0  18.25 1 0  18.5 1 0  18.75 1 0  19 1 0  19.25 1 0  19.5 1 0  19.75 1 0  20 1 0  20.25 1 0  20.5 1 0  20.75 1 0  21 1 0  21.25 1 0  21.5 1 0  21.75 1 0  22 1 0  22.25 1 0  22.5 1 0  22.75 1 0  23 1 0  23.25 1 0  23.5 1 0  23.75 1 0  24 1 0  24.25 1 0  24.5 1 0  24.75 1 0  25 1 0  0 1.25 0  0.25 1.25 0  0.5 1.25 0  0.75 1.25 0  1 1.25 0  1.25 1.25 0  1.5 1.25 0  1.75 1.25 0  2 1.25 0  2.25 1.25 0  2.5 1.25 0  2.75 1.25 0  3 1.25 0  3.25 1.25 0  3.5 1.25 0  3.75 1.25 0  4 1.25 0  4.25 1.25 0  4.5 1.25 0  4.75 1.25 0  5 1.25 0  5.25 1.25 0  5.5 1.25 0  5.75 1.25 0  6 1.25 0  6.25 1.25 0  6.5 1.25 0  6.75 1.25 0  7 1.25 0  7.25 1.25 0  7.5 1.25 0  7.75 1.25 0  8 1.25 0  8.25 1.25 0  8.5 1.25 0  8.75 1.25 0  9 1.25 0  9.25 1.25 0  9.5 1.25 0  9.75 1.25 0  10 1.25 0  10.25 1.25 0  10.5 1.25 0  10.75 1.25 0  11 1.25 0  11.25 1.25 0  11.5 1.25 0  11.75 1.25 0  12 1.25 0  12.25 1.25 0  12.5 1.25 0  12.75 1.25 0  13 1.25 0  13.25 1.25 0  13.5 1.25 0  13.75 1.25 0  14 1.25 0  14.25 1.25 0  14.5 1.25 0  14.75 1.25 0  15 1.25 0  15.25 1.25 0  15.5 1.25 0  15.75 1.25 0  16 1.25 0  16.25 1.25 0  16.5 1.25 0  16.75 1.25 0  17 1.25 0  17.25 1.25 0  17.5 1.25 0  17.75 1.25 0  18 1.25 0  18.25 1.25 0  18.5 1.25 0  18.75 1.25 0  19 1.25 0  19.25 1.25 0  19.5 1.25 0  19.75 1.25 0  20 1.25 0  20.25 1.25 0  20.5 1.25 0  20.75 1.25 0  21 1.25 0  21.25 1.25 0  21.5 1.25 0  21.75 1.25 0  22 1.25 0  22.25 1.25 0  22.5 1.25 0  22.75 1.25 0  23 1.25 0  23.25 1.25 0  23.5 1.25 0  23.75 1.25 0  24 1.25 0  24.25 1.25 0  24.5 1.25 0  24.75 1.25 0  25 1.25 0  0 1.5 0  0.25 1.5 0  0.5 1.5 0  0.75 1.5 0  1 1.5 0  1.25 1.5 0  1.5 1.5 0  1.75 1.5 0  2 1.5 0  2.25 1.5 0  2.5 1.5 0  2.75 1.5 0  3 1.5 0  3.25 1.5 0  3.5 1.5 0  3.75 1.5 0  4 1.5 0  4.25 1.5 0  4.5 1.5 0  4.75 1.5 0  5 1.5 0  5.25 1.5 0  5.5 1.5 0  5.75 1.5 0  6 1.5 0  6.25 1.5 0  6.5 1.5 0  6.75 1.5 0  7 1.5 0  7.25 1.5 0  7.5 1.5 0  7.75 1.5 0  8 1.5 0  8.25 1.5 0  8.5 1.5 0  8.75 1.5 0  9 1.5 0  9.25 1.5 0  9.5 1.5 0  9.75 1.5 0  10 1.5 0  10.25 1.5 0  10.5 1.5 0  10.75 1.5 0  11 1.5 0  11.25 1.5 0  11.5 1.5 0  11.75 1.5 0  12 1.5 0  12.25 1.5 0  12.5 1.5 0  12.75 1.5 0  13 1.5 0  13.25 1.5 0  13.5 1.5 0  13.75 1.5 0  14 1.5 0  14.25 1.5 0  14.5 1.5 0  14.75 1.5 0  15 1.5 0  15.25 1.5 0  15.5 1.5 0  15.75 1.5 0  16 1.5 0  16.25 1.5 0  16.5 1.5 0  16.75 1.5 0  17 1.5 0  17.25 1.5 0  17.5 1.5 0  17.75 1.5 0  18 1.5 0  18.25 1.5 0  18.5 1.5 0  18.75 1.5 0  19 1.5 0  19.25 1.5 0  19.5 1.5 0  19.75 1.5 0  20 1.5 0  20.25 1.5 0  20.5 1.5 0  20.75 1.5 0  21 1.5 0  21.25 1.5 0  21.5 1.5 0  21.75 1.5 0  22 1.5 0  22.25 1.5 0  22.5 1.5 0  22.75 1.5 0  23 1.5 0  23.25 1.5 0  23.5 1.5 0  23.75 1.5 0  24 1.5 0  24.25 1.5 0  24.5 1.5 0  24.75 1.5 0  25 1.5 0  0 1.75 0  0.25 1.75 0  0.5 1.75 0  0.75 1.75 0  1 1.75 0  1.25 1.75 0  1.5 1.75 0  1.75 1.75 0  2 1.75 0  2.25 1.75 0  2.5 1.75 0  2.75 1.75 0  3 1.75 0  3.25 1.75 0  3.5 1.75 0  3.75 1.75 0  4 1.75 0  4.25 1.75 0  4.5 1.75 0  4.75 1.75 0  5 1.75 0  5.25 1.75 0  5.5 1.75 0  5.75 1.75 0  6 1.75 0  6.25 1.75 0  6.5 1.75 0  6.75 1.75 0  7 1.75 0  7.25 1.75 0  7.5 1.75 0  7.75 1.75 0  8 1.75 0  8.25 1.75 0  8.5 1.75 0  8.75 1.75 0  9 1.75 0  9.25 1.75 0  9.5 1.75 0  9.75 1.75 0  10 1.75 0  10.25 1.75 0  10.5 1.75 0  10.75 1.75 0  11 1.75 0  11.25 1.75 0  11.5 1.75 0  11.75 1.75 0  12 1.75 0  12.25 1.75 0  12.5 1.75 0  12.75 1.75 0  13 1.75 0  13.25 1.75 0  13.5 1.75 0  13.75 1.75 0  14 1.75 0  14.25 1.75 0  14.5 1.75 0  14.75 1.75 0  15 1.75 0  15.25 1.75 0  15.5 1.75 0  15.75 1.75 0  16 1.75 0  16.25 1.75 0  16.5 1.75 0  16.75 1.75 0  17 1.75 0  17.25 1.75 0  17.5 1.75 0  17.75 1.75 0  18 1.75 0  18.25 1.75 0  18.5 1.75 0  18.75 1.75 0  19 1.75 0  19.25 1.75 0  19.5 1.75 0  19.75 1.75 0  20 1.75 0  20.25 1.75 0  20.5 1.75 0  20.75 1.75 0  21 1.75 0  21.25 1.75 0  21.5 1.75 0  21.75 1.75 0  22 1.75 0  22.25 1.75 0  22.5 1.75 0  22.75 1.75 0  23 1.75 0  23.25 1.75 0  23.5 1.75 0  23.75 1.75 0  24 1.75 0  24.25 1.75 0  24.5 1.75 0  24.75 1.75 0  25 1.75 0  0 2 0  0.25 2 0  0.5 2 0  0.75 2 0  1 2 0  1.25 2 0  1.5 2 0  1.75 2 0  2 2 0  2.25 2 0  2.5 2 0  2.75 2 0  3 2 0  3.25 2 0  3.5 2 0  3.75 2 0  4 2 0  4.25 2 0  4.5 2 0  4.75 2 0  5 2 0  5.25 2 0  5.5 2 0  5.75 2 0  6 2 0  6.25 2 0  6.5 2 0  6.75 2 0  7 2 0  7.25 2 0  7.5 2 0  7.75 2 0  8 2 0  8.25 2 0  8.5 2 0  8.75 2 0  9 2 0  9.25 2 0  9.5 2 0  9.75 2 0  10 2 0  10.25 2 0  10.5 2 0  10.75 2 0  11 2 0  11.25 2 0 
[...]
<PointData  Scalars="f_26"> 
<DataArray  type="Float64"  Name="f_26"  format="ascii">2.6388154434311285e-05  2.6373230266276658e-05  2.6340211067594275e-05  2.6285640028423472e-05  2.6206361284822093e-05  2.6098800607489219e-05  2.5959133300245499e-05  2.5783882770061061e-05  2.5570857576184393e-05  2.5320304767178547e-05  2.5035994550075233e-05  2.4725783598432572e-05  2.4401110281470329e-05  2.4075835505825596e-05  2.3767823830807444e-05  2.3507018489216628e-05  2.3323023140686545e-05  2.3196635096231748e-05  2.3108578752437003e-05  2.3052668150711460e-05  2.3023349189108079e-05  2.3014575674863434e-05  2.3020456312717995e-05  2.3035710153127125e-05  2.3056031477949385e-05  2.3078383592716149e-05  2.3101108557401933e-05  2.3123791814697230e-05  2.3146946235709387e-05  2.3171627593622093e-05  2.3199059557990493e-05  2.3230300449491054e-05  2.3265967510215138e-05  2.3306041505788264e-05  2.3349778764687305e-05  2.3395743041391594e-05  2.3441942206046922e-05  2.3486032513365998e-05  2.3525546845611758e-05  2.3558110945565706e-05  2.3581625690959307e-05  2.3594407473409735e-05  2.3595289028506071e-05  2.3583688181292176e-05  2.3559652177296504e-05  2.3523881724997795e-05  2.3477732872534366e-05  2.3423187569416822e-05  2.3362776737817404e-05  2.3299435570200325e-05  2.3236274328897102e-05  2.3176265821369331e-05  2.3121886712582331e-05  2.3074793353371638e-05  2.3035633523044631e-05  2.3004063203294478e-05  2.2978957266045148e-05  2.2958723602069322e-05  2.2941604837643867e-05  2.2925886219410466e-05  2.2909987155293459e-05  2.2892444634033639e-05  2.2871835791282644e-05  2.2846559354328102e-05  2.2814767948132574e-05  2.2773182674602496e-05  2.2718782523048419e-05  2.2637041630483261e-05  2.2528688473629139e-05  2.2269722219070301e-05  2.1903527339751443e-05  2.2061082255330545e-05  2.2381350491071748e-05  2.2743679490882972e-05  2.3123038848880417e-05  2.3498112874580130e-05  2.3849455715290856e-05  2.4162161097418869e-05  2.4428096919275842e-05  2.4645714477015344e-05  2.4818319337604722e-05  2.4951928942977329e-05  2.5053477422609214e-05  2.5129643669320930e-05  2.5186253518737723e-05  2.5228082718445201e-05  2.5258888569531381e-05  2.5281545854254355e-05  2.5298212596327516e-05  2.5310487853137977e-05  2.5319546167999755e-05  2.5326245274892334e-05  2.5331209152727325e-05  2.5334890494564665e-05  2.5337616894769952e-05  2.5339624564011934e-05  2.5341082660695031e-05  2.5342110593345329e-05  2.5342789929314270e-05  2.5343171596773545e-05  2.5343276638080825e-05  2.6364401116181222e-05  2.6352685743641932e-05  2.6320016336467154e-05  2.6264975598357364e-05  2.6184902025266664e-05  2.6076408928664323e-05  2.5935817578254444e-05  2.5759812644418041e-05  2.5546378288204183e-05  2.5295922504809458e-05  2.5012315416080380e-05  2.4703397259178007e-05  2.4380443725517244e-05  2.4057215983965552e-05  2.3751281559242979e-05  2.3491587443196286e-05  2.3309377407165510e-05  2.3185562939526817e-05  2.3098988005789752e-05  2.3044874095048036e-05  2.3017458754113534e-05  2.3010449240860991e-05  2.3017769090768867e-05  2.3034067023981285e-05  2.3055066384479950e-05  2.3077813561957822e-05  2.3100748356339024e-05  2.3123543073571924e-05  2.3146774766951338e-05  2.3171539334648274e-05  2.3199081195664076e-05  2.3230466856185207e-05  2.3266315439554282e-05  2.3306607519011850e-05  2.3350598916943524e-05  2.3396852362758263e-05  2.3443373090969020e-05  2.3487812154555271e-05  2.3527694381410156e-05  2.3560635003920972e-05  2.3584522710176395e-05  2.3597660795051389e-05  2.3598868475962380e-05  2.3587549759857822e-05  2.3563737675801555e-05  2.3528118326215785e-05  2.3482033311727295e-05  2.3427451789212010e-05  2.3366896182202737e-05  2.3303301017470248e-05  2.3239787291586090e-05  2.3179351959454927e-05  2.3124507710728508e-05  2.3076952451653314e-05  2.3037371072934963e-05  2.3005442749057351e-05  2.2980047415090690e-05  2.2959582591083691e-05  2.2942271861239021e-05  2.2926379597529147e-05  2.2910305719876805e-05  2.2892572788382511e-05  2.2871738549009826e-05  2.2846209093657669e-05  2.2814050378126674e-05  2.2772240737405733e-05  2.2716770999780303e-05  2.2636560571763272e-05  2.2522048944468286e-05  2.2277616993354117e-05  2.1921079971888973e-05  2.2063532964653319e-05  2.2382225306271297e-05  2.2744171365007065e-05  2.3123234837853389e-05  2.3498212459233472e-05  2.3849720256559294e-05  2.4162672653117055e-05  2.4428809747334683e-05  2.4646526521270367e-05  2.4819128423595103e-05  2.4952662527557617e-05  2.5054098480504836e-05  2.5130143394705992e-05  2.5186640472325585e-05  2.5228373593588014e-05  2.5259102089443642e-05  2.5281699462406619e-05  2.5298321059428068e-05  2.5310562967018522e-05  2.5319597002043805e-05  2.5326278619441017e-05  2.5331229994551282e-05  2.5334902442778412e-05  2.5337622532833593e-05  2.5339625731458750e-05  2.5341080688195739e-05  2.5342106555873929e-05  2.5342785148574491e-05  2.5343169400723935e-05  2.5343290198764193e-05  2.6304272851842646e-05  2.6292898597280195e-05  2.6259583242834526e-05  2.6202979042073941e-05  2.6120671236289872e-05  2.6009543251405843e-05  2.5866246695245408e-05  2.5687883416352173e-05  2.5472928977700161e-05  2.5222295293410906e-05  2.4940259774278913e-05  2.4634826483246169e-05  2.4317083195700425e-05  2.4000642887238847e-05  2.3703246056130234e-05  2.3454687001790772e-05  2.3282591339551234e-05  2.3164198725051955e-05  2.3081950688326746e-05  2.3032004675926163e-05  2.3008146698938330e-05  2.3003983760127999e-05  2.3013401297858023e-05  2.3031125385476707e-05  2.3053023801379427e-05  2.3076308795429105e-05  2.3099571343039422e-05  2.3122601785885961e-05  2.3146060117405250e-05  2.3171096912423930e-05  2.3198991436066386e-05  2.3230831575271614e-05  2.3267248053816578e-05  2.3308225031983496e-05  2.3353014653611981e-05  2.3400169071560940e-05  2.3447676492795421e-05  2.3493165331662196e-05  2.3534133425443127e-05  2.3568166049888800e-05  2.3593120088441530e-05  2.3607265800421457e-05  2.3609388288112431e-05  2.3598856307054659e-05  2.3575666629837930e-05  2.3540468892579876e-05  2.3494569982189724e-05  2.3439909635286434e-05  2.3378991351200382e-05  2.3314747553341533e-05  2.3250320080587458e-05  2.3188753601339805e-05  2.3132634680018212e-05  2.3083753524752658e-05  2.3042890289038658e-05  2.3009802783176533e-05  2.2983417226512877e-05  2.2962140321431576e-05  2.2944174468445963e-05  2.2927745042896310e-05  2.2911207161928021e-05  2.2893039922913695e-05  2.2871763825636037e-05  2.2845744867916779e-05  2.2813036660855561e-05  2.2770493782961558e-05  2.2714352052229938e-05  2.2632488209337702e-05  2.2517713479637301e-05  2.2268141304656033e-05  2.1923399752626228e-05  2.2067456796922181e-05  2.2385856624064787e-05  2.2747630499608040e-05  2.3126447986693039e-05  2.3501131285177249e-05  2.3852344151568281e-05  2.4164999616080538e-05  2.4430829016354796e-05  2.4648229787980814e-05  2.4820520478116694e-05  2.4953764567666119e-05  2.5054944789197531e-05  2.5130775049117613e-05  2.5187099310834392e-05  2.5228698012082504e-05  2.5259324870239986e-05  2.5281847170682801e-05  2.5298414399953396e-05  2.5310617602363307e-05  2.5319624504229474e-05  2.5326287374185589e-05  2.5331225978200987e-05  2.5334889851784521e-05  2.5337604277075929e-05  2.5339603818384140e-05  2.5341056535503879e-05  2.5342081286619772e-05  2.5342759946832099e-05  2.5343145949762456e-05  2.5343270292725679e-05  2.6203018324632962e-05  2.6191232719835214e-05  2.6156436498041029e-05  2.6097266084042662e-05  2.6011519026011381e-05  2.5896441075226779e-05  2.5749195797663514e-05  2.5567548660034954e-05  2.5350751114961369e-05  2.5100497259088889e-05  2.4821675133463663e-05  2.4522476918805788e-05  2.4213761830734399e-05  2.3909069650865666e-05  2.3626886058432487e-05  2.3398483344370250e-05  2.3242419208804753e-05  2.3132653823364022e-05  2.3058000184937621e-05  2.3014673857580636e-05  2.2996150581971935e-05  2.2995975131660910e-05  2.3008109425979546e-05  2.3027519549829603e-05  2.3050370942532968e-05  2.3074163310448297e-05  2.3097718569818684e-05  2.3120988335661330e-05  2.3144735046259483e-05  2.3170172276035631e-05  2.3198619055103292e-05  2.3231188726337375e-05  2.3268526187709423e-05  2.3310618739562253e-05  2.3356710427716737e-05  2.3405334364378782e-05  2.3454449763918376e-05  2.3501647784352608e-05  2.3544382924439292e-05  2.3580193209691957e-05  2.3606885954686967e-05  2.3622680265969587e-05  2.3626308512335952e-05  2.3617084838526532e-05  2.3594949528158684e-05  2.3560494833326991e-05  2.3514972071459153e-05  2.3460272329338271e-05  2.3398865143103470e-05  2.3333673457572981e-05  2.3267864055433285e-05  2.3204548018808467e-05  2.3146420290539728e-05  2.3095411729786951e-05  2.3052453750373157e-05  2.3017436259679159e-05  2.2989371649352745e-05  2.2966695184950841e-05  2.2947586897495642e-05  2.2930216773365411e-05  2.2912869982961458e-05  2.2893954187511260e-05  2.2871920090904621e-05  2.2845068602370867e-05  2.2811369549298327e-05  2.2767598325586343e-05  2.2709806289546450e-05  2.2625550901512432e-05  2.2507681310425160e-05  2.2249477836969438e-05  2.1922367116871338e-05  2.2073354239852211e-05  2.2392117565021213e-05  2.2753859315871980e-05  2.3132381433684264e-05  2.3506544216022465e-05  2.3857082064668661e-05  2.4168992283994426e-05  2.4434079628755433e-05  2.4650794651315988e-05  2.4822487175372733e-05  2.4955233061855247e-05  2.5056013718294914e-05  2.5131533413942316e-05  2.5187622585794271e-05  2.5229047327660717e-05  2.5259548015588241e-05  2.5281980466720824e-05  2.5298484820705308e-05  2.5310644791021249e-05  2.5319622518429647e-05  2.5326266110956189e-05  2.5331192292050676e-05  2.5334848408207503e-05  2.5337558192927964e-05  2.5339555140013425e-05  2.5341006600783498e-05  2.5342031008109429e-05  2.5342710026256498e-05  2.5343096935506210e-05  2.5343222113959723e-05  2.6056022100734724e-05  2.6043635174128251e-05  2.6006889114617351e-05  2.5944529701105167e-05  2.5854660799654256e-05  2.5735030929274577e-05  2.5583507915912409e-05  2.5398745617492868e-05  2.5180992930017419e-05  2.4932892281252206e-05  2.4659972377783977e-05  2.4370488635907854e-05  2.4075165022708371e-05  2.3787653919155652e-05  2.3528232313766066e-05  2.3328053597582530e-05  2.3190710954191406e-05  2.3092332174026487e-05  2.3028283808622308e-05  2.2993832618821957e-05  2.2982219113235088e-05  2.2986943771707587e-05  2.3002221672845438e-05  2.3023434036469424e-05  2.3047189248618290e-05  2.3071380111445690e-05  2.3095126548362394e-05  2.3118578649075495e-05  2.3142619180271582e-05  2.3168532458501439e-05  2.3197680683106504e-05  2.3231204184635252e-05  2.3269762023836708e-05  2.3313342630237013e-05  2.3361177517420535e-05  2.3411773731287773e-05  2.3463051960111190e-05  2.3512554415500628e-05  2.3557679000254072e-05  2.3595902319420008e-05  2.3624967522434819e-05  2.3643027715982206e-05  2.3648747301962880e-05  2.3641369850143539e-05  2.3620762053488516e-05  2.3587440249312594e-05  2.3542580285025939e-05  2.3488004064476006e-05  2.3426127800455534e-05  2.3359849913714810e-05  2.3292355646081615e-05  2.3226828874927517e-05  2.3166094941774008e-05  2.3112262891827863e-05  2.3066464566079645e-05  2.3028774720458491e-05  2.2998337404478149e-05  2.2973645201301089e-05  2.2952864097511815e-05  2.2934099281326667e-05  2.2915544939490942e-05  2.2895510134458815e-05  2.2872346153205577e-05  2.2844255601356595e-05  2.2809088279207259e-05  2.2763488767881076e-05  2.2703245382535430e-05  2.2615556980452705e-05  2.2492698899338021e-05  2.2224511252749479e-05  2.1921148872495941e-05  2.2081245538768538e-05  2.2400684175342078e-05  2.2762459459157362e-05  2.3140599321305300e-05  2.3514023726882105e-05  2.3863565526003073e-05  2.4174362699064195e-05  2.4438350876649186e-05  2.4654072261116532e-05  2.4824923855590646e-05  2.4956992836647737e-05  2.5057249280859454e-05  2.5132375191845073e-05  2.5188175797811702e-05  2.5229393499768867e-05  2.5259748454946857e-05  2.5282080214052309e-05  2.5298516335906937e-05  2.5310631073259503e-05  2.5319579601161942e-05  2.5326204984123742e-05  2.5331120344996547e-05  2.5334770492806030e-05  2.5337477396728616e-05  2.5339473344032582e-05  2.5340924879997087e-05  2.5341949914130367e-05  2.5342629765887258e-05  2.5343017420406298e-05  2.5343142838492747e-05  2.5859069288668117e-05  2.5846143959026045e-05  2.5807395810092769e-05  2.5741811315526222e-05  2.5647937668693877e-05  2.5524187539225057e-05  2.5369312060047769e-05  2.5183021786321437e-05  2.4966675908864117e-05  2.4723856392775271e-05  2.4460540882523746e-05  2.4185024478951319e-05  2.3908083539777305e-05  2.3644013838962358e-05  2.3416078115513245e-05  2.3248687654728050e-05  2.3130077284703770e-05  2.3046255089160758e-05  2.2995548323837563e-05  2.2971749103435926e-05  2.2968009281512351e-05  2.2977974601776321e-05  2.2996374580130990e-05  2.3019189321728756e-05  2.3043592506488730e-05  2.3067940446959790e-05  2.3091687024216735e-05  2.3115196393050272e-05  2.3139476848147987e-05  2.3165884295997988e-05  2.3195823455112824e-05  2.3230460395830556e-05  2.3270466522887625e-05  2.3315828825890735e-05  2.3365762751541385e-05  2.3418744469566765e-05  2.3472649732017982e-05  2.3524963701794354e-05  2.3573018174282818e-05  2.3614217938996281e-05  2.3646231187551196e-05  2.3667134064965562e-05  2.3675511779705392e-05  2.3670525458573786e-05  2.3651955122163957e-05  2.3620226235734269e-05  2.3576421754760584e-05  2.3522274293155019e-05  2.3460124592337660e-05  2.3392824484270836e-05  2.3323559614356713e-05  2.3255577707582225e-05  2.3191839246547449e-05  2.3134652275027023e-05  2.3085385295923737e-05  2.3044345083307275e-05  2.3010856436850920e-05  2.2983508945812215e-05  2.2960476483034154e-05  2.2939801921847657e-05  2.2919575453447133e-05  2.2897984885080034e-05  2.2873254001697865e-05  2.2843456898127054e-05  2.2806282906331924e-05  2.2758221937348797e-05  2.2694667805797938e-05  2.2602645095436235e-05  2.2472878497838261e-05  2.2195406715670732e-05  2.1921039905199705e-05  2.2090839752036026e-05  2.2411062895559291e-05  2.2772874307213855e-05  2.3150525360501545e-05  2.3523015136760194e-05  2.3871299494501775e-05  2.4180697591534033e-05  2.4443315034563414e-05  2.4657811592376228e-05  2.4827641828239073e-05  2.4958902808522426e-05  2.5058545494976809e-05  2.5133219904567718e-05  2.5188696993863118e-05  2.5229688142810562e-05  2.5259887855414622e-05  2.5282115614574236e-05  2.5298483849502558e-05  2.5310555699019223e-05  2.5319478330571386e-05  2.5326089126945049e-05  2.5330997231841039e-05  2.5334644700980737e-05  2.5337351621680630e-05  2.5339349012245590e-05  2.5340802574741225e-05  2.5341829663581889e-05  2.5342511223477764e-05  2.5342899953926531e-05  2.5343025558249823e-05  2.5609905169243675e-05  2.5596688032810511e-05  2.5556358521769168e-05  2.5488260341655993e-05  2.5391515450602948e-05  2.5265337817692534e-05  2.5109480547546945e-05  2.4924769851599435e-05  2.4713611678280569e-05  2.4480282535486336e-05  2.4231078009798154e-05  2.3974510081123709e-05  2.3721625982446341e-05  2.3488741769287554e-05  2.3300248895223683e-05  2.3163861770163451e-05  2.3064401212797152e-05  2.2998622497935454e-05  2.2963175492238509e-05  2.2950922055206349e-05  2.2955147210545179e-05  2.2970016345056204e-05  2.2991051038563594e-05  2.3014976276326993e-05  2.3039598961799491e-05  2.3063760284584078e-05  2.3087248903303504e-05  2.3110636838298103e-05  2.3135051150025894e-05  2.3161913950940086e-05  2.3192668409387444e-05  2.3228503082321351e-05  2.3270099025747708e-05  2.3317439662969511e-05  2.3369722706586808e-05  2.3425391725382516e-05  2.3482274978793892e-05  2.3537796630138166e-05  2.3589216989163688e-05  2.3633862636887665e-05  2.3669319924713732e-05  2.3693581004274993e-05  2.3705144730948350e-05  2.3703082194948649e-05  2.3687078115631536e-05  2.3657456558820247e-05  2.3615194099256972e-05  2.3561916535618834e-05  2.3499866943858543e-05  2.3431824312975124e-05  2.3360947107282124e-05  2.3290522997512349e-05  2.3223633386825130e-05  2.3162785680373093e-05  2.3109602598556773e-05  2.3064657293510911e-05  2.3027501252411894e-05  2.2996867889173114e-05  2.2970974656122732e-05  2.2947819505598421e-05  2.2925387707555068e-05  2.2901730995452059e-05  2.2874922417856793e-05  2.2842878867078698e-05  2.2803095999039621e-05  2.2751880309668459e-05  2.2684144458631233e-05  2.2586929750357033e-05  2.2448546597589743e-05  2.2164553235728720e-05  2.1922639533859634e-05  2.2101647178340816e-05  2.2422611295115025e-05  2.2784401494927034e-05  2.3161443161117917e-05  2.3532830985153140e-05  2.3879662996507371e-05  2.4187466169551827e-05  2.4448538514926086e-05  2.4661670259517359e-05  2.4830376732037220e-05  2.4960761334304256e-05  2.5059749124040217e-05  2.5133950773302751e-05  2.5189096510486372e-05  2.5229861674330848e-05  2.5259911522120496e-05  2.5282043056370829e-05  2.5298352045913513e-05  2.5310389599294452e-05  2.5319294366151323e-05  2.5325897793720310e-05  2.5330804946966002e-05  2.5334455115823769e-05  2.5337166537351046e-05  2.5339169009515529e-05  2.5340627440493104e-05  2.5341658672067840e-05  2.5342343312981771e-05  2.5342733830078560e-05  2.5342859759538359e-05  2.5310317142473371e-05  2.5297183301000296e-05  2.5256177351861455e-05  2.5187080126634465e-05  2.5089668671712506e-05  2.4964016994120490e-05  2.4810877275778583e-05  2.4632060704787623e-05  2.4430742335020600e-05  2.4211754527199986e-05  2.3981821389918040e-05  2.3749730469949759e-05  2.3527725206640311e-05  2.3334858439109257e-05  2.3186741083672376e-05  2.3076765599823027e-05  2.2999591423637939e-05  2.2954325292804572e-05  2.2934715714405277e-05  2.2933636664524095e-05  2.2944912954290362e-05  2.2963698149865048e-05  2.2986495382688483e-05  2.3010830715677143e-05  2.3035137698678169e-05  2.3058713196206152e-05  2.3081650024181618e-05  2.3104703998772629e-05  2.3129104856112310e-05  2.3156330849326407e-05  2.3187857166927532e-05  2.3224890565274354e-05  2.3268119204758391e-05  2.3317522291597155e-05  2.3372280967902016e-05  2.3430808389629855e-05  2.3490887263998828e-05  2.3549881372451098e-05  2.3604978463920912e-05  2.3653424456154979e-05  2.3692720636984839e-05  2.3720771690979753e-05  2.3735986615241676e-05  2.3737342793153499e-05  2.3724425318580551e-05  2.3697451016359520e-05  2.3657281454077012e-05  2.3605422574328806e-05  2.3544000625720321e-05  2.3475695425239602e-05  2.3403605578660395e-05  2.3331023422349429e-05  2.3261119767601848e-05  2.3196580568649836e-05  2.3139278105632178e-05  2.3090066643909833e-05  2.3048757942255992e-05  2.3014274609340316e-05  2.2984922250098662e-05  2.2958685828584678e-05  2.2933459561526788e-05  2.2907156102968093e-05  2.2877682900718421e-05  2.2842776655661857e-05  2.2799715061762118e-05  2.2744595328867984e-05  2.2671822669521298e-05  2.2568613561515923e-05  2.2420489395947896e-05  2.2134456893184357e-05  2.1926099796697473e-05  2.2113026775585096e-05  2.2434550139648557e-05  2.2796199591732136e-05  2.3172499258785021e-05  2.3542652472994012e-05  2.3887912401653488e-05  2.4194025936818773e-05  2.4453488903532826e-05  2.4665221092807550e-05  2.4832793549264862e-05  2.4962309309241244e-05  2.5060661041677184e-05  2.5134414778821119e-05  2.5189256185631518e-05  2.5229822053209397e-05  2.5259746925487623e-05  2.5281804592994841e-05  2.5298073910757235e-05  2.5310093989818302e-05  2.5318995148649585e-05  2.5325603153966875e-05  2.5330519263429316e-05  2.5334180259457370e-05  2.5336902758631893e-05  2.5338915533253051e-05  2.5340382855974240e-05  2.5341421180869227e-05  2.5342110878879519e-05  2.5342504264803449e-05  2.5342630774265247e-05  2.4967959624218112e-05  2.4955313229363576e-05  2.4914920996691932e-05  2.4847002547726124e-05  2.4751967433281014e-05  2.4630661111984045e-05  2.4484637899883230e-05  2.4316459203745432e-05  2.4129994993257662e-05  2.3930627221709564e-05  2.3725419750988647e-05  2.3524045852901531e-05  2.3341112248078375e-05  2.3191807144581371e-05  2.3077317336610341e-05  2.2994240257824436e-05  2.2942689493439426e-05  2.2918029298880037e-05  2.2913020346341293e-05  2.2921304652287877e-05  2.2937869336197055e-05  2.2959151266875306e