<?xml version="1.0"?>
<VTKFile type="UnstructuredGrid"  version="0.1"  >
<UnstructuredGrid>
<Piece  NumberOfPoints="10201" NumberOfCells="20000">
<Points>
<DataArray  type="Float64"  NumberOfComponents="3"  format="ascii">0 0 0  0.25 0 0  0.5 0 0  0.75 0 0  1 0 0  1.25 0 0  1.5 0 0  1.75 0 0  2 0 0  2.25 0 0  2.5 0 0  2.75 0 0  3 0 0  3.25 0 0  3.5 0 0  3.75 0 0  4 0 0  4.25 0 0  4.5 0 0  4.75 0 0  5 0 0  5.25 0 0  5.5 0 0  5.75 0 0  6 0 0  6.25 0 0  6.5 0 0  6.75 0 0  7 0 0  7.25 0 0  7.5 0 0  7.75 0 0  8 0 0  8.25 0 0  8.5 0 0  8.75 0 0  9 0 0  9.25 0 0  9.5 0 0  9.75 0 0  10 0 0  10.25 0 0  10.5 0 0  10.75 0 0  11 0 0  11.25 0 0  11.5 0 0  11.75 0 0  12 0 0  12.25 0 0  12.5 0 0  12.75 0 0  13 0 0  13.25 0 0  13.5 0 0  13.75 0 0  14 0 0  14.25 0 0  14.5 0 0  14.75 0 0  15 0 0  15.25 0 0  15.5 0 0  15.75 0 0  16 0 0  16.25 0 0  16.5 0 0  16.75 0 0  17 0 0  17.25 0 0  17.5 0 0  17.75 0 0  18 0 0  18.25 0 0  18.5 0 0  18.75 0 0  19 0 0  19.25 0 0  19.5 0 0  19.75 0 0  20 0 0  20.25 0 0  20.5 0 0  20.75 0 0  21 0 0  21.25 0 0  21.5 0 0  21.75 0 0  22 0 0  22.25 0 0  22.5 0 0  22.75 0 0  23 0 0  23.25 0 0  23.5 0 0  23.75 0 0  24 0 0  24.25 0 0  24.5 0 0  24.75 0 0  25 0 0  0 0.25 0  0.25 0.25 0  0.5 0.25 0  0.75 0.25 0  1 0.25 0  1.25 0.25 0  1.5 0.25 0  1.75 0.25 0  2 0.25 0  2.25 0.25 0  2.5 0.25 0  2.75 0.25 0  3 0.25 0  3.25 0.25 0  3.5 0.25 0  3.75 0.25 0  4 0.25 0  4.25 0.25 0  4.5 0.25 0  4.75 0.25 0  5 0.25 0  5.25 0.25 0  5.5 0.25 0  5.75 0.25 0  6 0.25 0  6.25 0.25 0  6.5 0.25 0  6.75 0.25 0  7 0.25 0  7.25 0.25 0  7.5 0.25 0  7.75 0.25 0  8 0.25 0  8.25 0.25 0  8.5 0.25 0  8.75 0.25 0  9 0.25 0  9.25 0.25 0  9.5 0.25 0  9.75 0.25 0  10 0.25 0  10.25 0.25 0  10.5 0.25 0  10.75 0.25 0  11 0.25 0  11.25 0.25 0  11.5 0.25 0  11.75 0.25 0  12 0.25 0  12.25 0.25 0  12.5 0.25 0  12.75 0.25 0  13 0.25 0  13.25 0.25 0  13.5 0.25 0  13.75 0.25 0  14 0.25 0  14.25 0.25 0  14.5 0.25 0  14.75 0.25 0  15 0.25 0  15.25 0.25 0  15.5 0.25 0  15.75 0.25 0  16 0.25 0  16.25 0.25 0  16.5 0.25 0  16.75 0.25 0  17 0.25 0  17.25 0.25 0  17.5 0.25 0  17.75 0.25 0  18 0.25 0  18.25 0.25 0  18.5 0.25 0  18.75 0.25 0  19 0.25 0  19.25 0.25 0  19.5 0.25 0  19.75 0.25 0  20 0.25 0  20.25 0.25 0  20.5 0.25 0  20.75 0.25 0  21 0.25 0  21.25 0.25 0  21.5 0.25 0  21.75 0.25 0  22 0.25 0  22.25 0.25 0  22.5 0.25 0  22.75 0.25 0  23 0.25 0  23.25 0.25 0  23.5 0.25 0  23.75 0.25 0  24 0.25 0  24.25 0.25 0  24.5 0.25 0  24.75 0.25 0  25 0.25 0  0 0.5 0  0.25 0.5 0  0.5 0.5 0  0.75 0.5 0  1 0.5 0  1.25 0.5 0  1.5 0.5 0  1.75 0.5 0  2 0.5 0  2.25 0.5 0  2.5 0.5 0  2.75 0.5 0  3 0.5 0  3.25 0.5 0  3.5 0.5 0  3.75 0.5 0  4 0.5 0  4.25 0.5 0  4.5 0.5 0  4.75 0.5 0  5 0.5 0  5.25 0.5 0  5.5 0.5 0  5.75 0.5 0  6 0.5 0  6.25 0.5 0  6.5 0.5 0  6.75 0.5 0  7 0.5 0  7.25 0.5 0  7.5 0.5 0  7.75 0.5 0  8 0.5 0  8.25 0.5 0  8.5 0.5 0  8.75 0.5 0  9 0.5 0  9.25 0.5 0  9.5 0.5 0  9.75 0.5 0  10 0.5 0  10.25 0.5 0  10.5 0.5 0  10.75 0.5 0  11 0.5 0  11.25 0.5 0  11.5 0.5 0  11.75 0.5 0  12 0.5 0  12.25 0.5 0  12.5 0.5 0  12.75 0.5 0  13 0.5 0  13.25 0.5 0  13.5 0.5 0  13.75 0.5 0  14 0.5 0  14.25 0.5 0  14.5 0.5 0  14.75 0.5 0  15 0.5 0  15.25 0.5 0  15.5 0.5 0  15.75 0.5 0  16 0.5 0  16.25 0.5 0  16.5 0.5 0  16.75 0.5 0  17 0.5 0  17.25 0.5 0  17.5 0.5 0  17.75 0.5 0  18 0.5 0  18.25 0.5 0  18.5 0.5 0  18.75 0.5 0  19 0.5 0  19.25 0.5 0  19.5 0.5 0  19.75 0.5 0  20 0.5 0  20.25 0.5 0  20.5 0.5 0  20.75 0.5 0  21 0.5 0  21.25 0.5 0  21.5 0.5 0  21.75 0.5 0  22 0.5 0  22.25 0.5 0  22.5 0.5 0  22.75 0.5 0  23 0.5 0  23.25 0.5 0  23.5 0.5 0  23.75 0.5 0  24 0.5 0  24.25 0.5 0  24.5 0.5 0  24.75 0.5 0  25 0.5 0  0 0.75 0  0.25 0.75 0  0.5 0.75 0  0.75 0.75 0  1 0.75 0  1.25 0.75 0  1.5 0.75 0  1.75 0.75 0  2 0.75 0  2.25 0.75 0  2.5 0.75 0  2.75 0.75 0  3 0.75 0  3.25 0.75 0  3.5 0.75 0  3.75 0.75 0  4 0.75 0  4.25 0.75 0  4.5 0.75 0  4.75 0.75 0  5 0.75 0  5.25 0.75 0  5.5 0.75 0  5.75 0.75 0  6 0.75 0  6.25 0.75 0  6.5 0.75 0  6.75 0.75 0  7 0.75 0  7.25 0.75 0  7.5 0.75 0  7.75 0.75 0  8 0.75 0  8.25 0.75 0  8.5 0.75 0  8.75 0.75 0  9 0.75 0  9.25 0.75 0  9.5 0.75 0  9.75 0.75 0  10 0.75 0  10.25 0.75 0  10.5 0.75 0  10.75 0.75 0  11 0.75 0  11.25 0.75 0  11.5 0.75 0  11.75 0.75 0  12 0.75 0  12.25 0.75 0  12.5 0.75 0  12.75 0.75 0  13 0.75 0  13.25 0.75 0  13.5 0.75 0  13.75 0.75 0  14 0.75 0  14.25 0.75 0  14.5 0.75 0  14.75 0.75 0  15 0.75 0  15.25 0.75 0  15.5 0.75 0  15.75 0.75 0  16 0.75 0  16.25 0.75 0  16.5 0.75 0  16.75 0.75 0  17 0.75 0  17.25 0.75 0  17.5 0.75 0  17.75 0.75 0  18 0.75 0  18.25 0.75 0  18.5 0.75 0  18.75 0.75 0  19 0.75 0  19.25 0.75 0  19.5 0.75 0  19.75 0.75 0  20 0.75 0  20.25 0.75 0  20.5 0.75 0  20.75 0.75 0  21 0.75 0  21.25 0.75 0  21.5 0.75 0  21.75 0.75 0  22 0.75 0  22.25 0.75 0  22.5 0.75 0  22.75 0.75 0  23 0.75 0  23.25 0.75 0  23.5 0.75 0  23.75 0.75 0  24 0.75 0  24.25 0.75 0  24.5 0.75 0  24.75 0.75 0  25 0.75 0  0 1 0  0.25 1 0  0.5 1 0  0.75 1 0  1 1 0  1.25 1 0  1.5 1 0  1.75 1 0  2 1 0  2.25 1 0  2.5 1 0  2.75 1 0  3 1 0  3.25 1 0  3.5 1 0  3.75 1 0  4 1 0  4.25 1 0  4.5 1 0  4.75 1 0  5 1 0  5.25 1 0  5.5 1 0  5.75 1 0  6 1 0  6.25 1 0  6.5 1 0  6.75 1 0  7 1 0  7.25 1 0  7.5 1 0  7.75 1 0  8 1 0  8.25 1 0  8.5 1 0  8.75 1 0  9 1 0  9.25 1 0  9.5 1 0  9.75 1 0  10 1 0  10.25 1 0  10.5 1 0  10.75 1 0  11 1 0  11.25 1 0  11.5 1 0  11.75 1 0  12 1 0  12.25 1 0  12.5 1 0  12.75 1 0  13 1 0  13.25 1 0  13.5 1 0  13.75 1 0  14 1 0  14.25 1 0  14.5 1 0  14.75 1 0  15 1 0  15.25 1 0  15.5 1 0  15.75 1 0  16 1 0  16.25 1 0  16.5 1 0  16.75 1 0  17 1 0  17.25 1 0  17.5 1 0  17.75 1 0  18 1 0  18.25 1 0  18.5 1 0  18.75 1 0  19 1 0  19.25 1 0  19.5 1 0  19.75 1 0  20 1 0  20.25 1 0  20.5 1 0  20.75 1 0  21 1 0  21.25 1 0  21.5 1 0  21.75 1 0  22 1 0  22.25 1 0  22.5 1 0  22.75 1 0  23 1 0  23.25 1 0  23.5 1 0  23.75 1 0  24 1 0  24.25 1 0  24.5 1 0  24.75 1 0  25 1 0  0 1.25 0  0.25 1.25 0  0.5 1.25 0  0.75 1.25 0  1 1.25 0  1.25 1.25 0  1.5 1.25 0  1.75 1.25 0  2 1.25 0  2.25 1.25 0  2.5 1.25 0  2.75 1.25 0  3 1.25 0  3.25 1.25 0  3.5 1.25 0  3.75 1.25 0  4 1.25 0  4.25 1.25 0  4.5 1.25 0  4.75 1.25 0  5 1.25 0  5.25 1.25 0  5.5 1.25 0  5.75 1.25 0  6 1.25 0  6.25 1.25 0  6.5 1.25 0  6.75 1.25 0  7 1.25 0  7.25 1.25 0  7.5 1.25 0  7.75 1.25 0  8 1.25 0  8.25 1.25 0  8.5 1.25 0  8.75 1.25 0  9 1.25 0  9.25 1.25 0  9.5 1.25 0  9.75 1.25 0  10 1.25 0  10.25 1.25 0  10.5 1.25 0  10.75 1.25 0  11 1.25 0  11.25 1.25 0  11.5 1.25 0  11.75 1.25 0  12 1.25 0  12.25 1.25 0  12.5 1.25 0  12.75 1.25 0  13 1.25 0  13.25 1.25 0  13.5 1.25 0  13.75 1.25 0  14 1.25 0  14.25 1.25 0  14.5 1.25 0  14.75 1.25 0  15 1.25 0  15.25 1.25 0  15.5 1.25 0  15.75 1.25 0  16 1.25 0  16.25 1.25 0  16.5 1.25 0  16.75 1.25 0  17 1.25 0  17.25 1.25 0  17.5 1.25 0  17.75 1.25 0  18 1.25 0  18.25 1.25 0  18.5 1.25 0  18.75 1.25 0  19 1.25 0  19.25 1.25 0  19.5 1.25 0  19.75 1.25 0  20 1.25 0  20.25 1.25 0  20.5 1.25 0  20.75 1.25 0  21 1.25 0  21.25 1.25 0  21.5 1.25 0  21.75 1.25 0  22 1.25 0  22.25 1.25 0  22.5 1.25 0  22.75 1.25 0  23 1.25 0  23.25 1.25 0  23.5 1.25 0  23.75 1.25 0  24 1.25 0  24.25 1.25 0  24.5 1.25 0  24.75 1.25 0  25 1.25 0  0 1.5 0  0.25 1.5 0  0.5 1.5 0  0.75 1.5 0  1 1.5 0  1.25 1.5 0  1.5 1.5 0  1.75 1.5 0  2 1.5 0  2.25 1.5 0  2.5 1.5 0  2.75 1.5 0  3 1.5 0  3.25 1.5 0  3.5 1.5 0  3.75 1.5 0  4 1.5 0  4.25 1.5 0  4.5 1.5 0  4.75 1.5 0  5 1.5 0  5.25 1.5 0  5.5 1.5 0  5.75 1.5 0  6 1.5 0  6.25 1.5 0  6.5 1.5 0  6.75 1.5 0  7 1.5 0  7.25 1.5 0  7.5 1.5 0  7.75 1.5 0  8 1.5 0  8.25 1.5 0  8.5 1.5 0  8.75 1.5 0  9 1.5 0  9.25 1.5 0  9.5 1.5 0  9.75 1.5 0  10 1.5 0  10.25 1.5 0  10.5 1.5 0  10.75 1.5 0  11 1.5 0  11.25 1.5 0  11.5 1.5 0  11.75 1.5 0  12 1.5 0  12.25 1.5 0  12.5 1.5 0  12.75 1.5 0  13 1.5 0  13.25 1.5 0  13.5 1.5 0  13.75 1.5 0  14 1.5 0  14.25 1.5 0  14.5 1.5 0  14.75 1.5 0  15 1.5 0  15.25 1.5 0  15.5 1.5 0  15.75 1.5 0  16 1.5 0  16.25 1.5 0  16.5 1.5 0  16.75 1.5 0  17 1.5 0  17.25 1.5 0  17.5 1.5 0  17.75 1.5 0  18 1.5 0  18.25 1.5 0  18.5 1.5 0  18.75 1.5 0  19 1.5 0  19.25 1.5 0  19.5 1.5 0  19.75 1.5 0  20 1.5 0  20.25 1.5 0  20.5 1.5 0  20.75 1.5 0  21 1.5 0  21.25 1.5 0  21.5 1.5 0  21.75 1.5 0  22 1.5 0  22.25 1.5 0  22.5 1.5 0  22.75 1.5 0  23 1.5 0  23.25 1.5 0  23.5 1.5 0  23.75 1.5 0  24 1.5 0  24.25 1.5 0  24.5 1.5 0  24.75 1.5 0  25 1.5 0  0 1.75 0  0.25 1.75 0  0.5 1.75 0  0.75 1.75 0  1 1.75 0  1.25 1.75 0  1.5 1.75 0  1.75 1.75 0  2 1.75 0  2.25 1.75 0  2.5 1.75 0  2.75 1.75 0  3 1.75 0  3.25 1.75 0  3.5 1.75 0  3.75 1.75 0  4 1.75 0  4.25 1.75 0  4.5 1.75 0  4.75 1.75 0  5 1.75 0  5.25 1.75 0  5.5 1.75 0  5.75 1.75 0  6 1.75 0  6.25 1.75 0  6.5 1.75 0  6.75 1.75 0  7 1.75 0  7.25 1.75 0  7.5 1.75 0  7.75 1.75 0  8 1.75 0  8.25 1.75 0  8.5 1.75 0  8.75 1.75 0  9 1.75 0  9.25 1.75 0  9.5 1.75 0  9.75 1.75 0  10 1.75 0  10.25 1.75 0  10.5 1.75 0  10.75 1.75 0  11 1.75 0  11.25 1.75 0  11.5 1.75 0  11.75 1.75 0  12 1.75 0  12.25 1.75 0  12.5 1.75 0  12.75 1.75 0  13 1.75 0  13.25 1.75 0  13.5 1.75 0  13.75 1.75 0  14 1.75 0  14.25 1.75 0  14.5 1.75 0  14.75 1.75 0  15 1.75 0  15.25 1.75 0  15.5 1.75 0  15.75 1.75 0  16 1.75 0  16.25 1.75 0  16.5 1.75 0  16.75 1.75 0  17 1.75 0  17.25 1.75 0  17.5 1.75 0  17.75 1.75 0  18 1.75 0  18.25 1.75 0  18.5 1.75 0  18.75 1.75 0  19 1.75 0  19.25 1.75 0  19.5 1.75 0  19.75 1.75 0  20 1.75 0  20.25 1.75 0  20.5 1.75 0  20.75 1.75 0  21 1.75 0  21.25 1.75 0  21.5 1.75 0  21.75 1.75 0  22 1.75 0  22.25 1.75 0  22.5 1.75 0  22.75 1.75 0  23 1.75 0  23.25 1.75 0  23.5 1.75 0  23.75 1.75 0  24 1.75 0  24.25 1.75 0  24.5 1.75 0  24.75 1.75 0  25 1.75 0  0 2 0  0.25 2 0  0.5 2 0  0.75 2 0  1 2 0  1.25 2 0  1.5 2 0  1.75 2 0  2 2 0  2.25 2 0  2.5 2 0  2.75 2 0  3 2 0  3.25 2 0  3.5 2 0  3.75 2 0  4 2 0  4.25 2 0  4.5 2 0  4.75 2 0  5 2 0  5.25 2 0  5.5 2 0  5.75 2 0  6 2 0  6.25 2 0  6.5 2 0  6.75 2 0  7 2 0  7.25 2 0  7.5 2 0  7.75 2 0  8 2 0  8.25 2 0  8.5 2 0  8.75 2 0  9 2 0  9.25 2 0  9.5 2 0  9.75 2 0  10 2 0  10.25 2 0  10.5 2 0  10.75 2 0  11 2 0  11.25 2 0 
[...]
<PointData  Scalars="f_26"> 
<DataArray  type="Float64"  Name="f_26"  format="ascii">2.4474209296536756e-05  2.4468998596036767e-05  2.4457296620974598e-05  2.4438585942914667e-05  2.4412776319803668e-05  2.4379929117007603e-05  2.4340202477335446e-05  2.4293850110895940e-05  2.4241234251061362e-05  2.4182841173784991e-05  2.4119294149220874e-05  2.4051360461860454e-05  2.3979950019942063e-05  2.3906104034733513e-05  2.3830973483255490e-05  2.3755788460488724e-05  2.3681820760193383e-05  2.3610342653625881e-05  2.3542584467985090e-05  2.3479692182098304e-05  2.3422684633806516e-05  2.3372409788363652e-05  2.3329502592749177e-05  2.3294352715774676e-05  2.3267094473522585e-05  2.3247627503185287e-05  2.3235664213733172e-05  2.3230786150081543e-05  2.3232486879365655e-05  2.3240187887409815e-05  2.3253229794779331e-05  2.3270853198232902e-05  2.3292185492011006e-05  2.3316243796284709e-05  2.3341955540786933e-05  2.3368192261167945e-05  2.3393810228088697e-05  2.3417692426024961e-05  2.3438788250394449e-05  2.3456148889944208e-05  2.3468957367900450e-05  2.3476552767558760e-05  2.3478448485681252e-05  2.3474344572091816e-05  2.3464134369910185e-05  2.3447905778171601e-05  2.3425937531162415e-05  2.3398690943725627e-05  2.3366797596858493e-05  2.3331043343746009e-05  2.3292348597462487e-05  2.3251743817737517e-05  2.3210337234104197e-05  2.3169269468003424e-05  2.3129648414775118e-05  2.3092460558618696e-05  2.3058464872344475e-05  2.3028091805530721e-05  2.3001384270027804e-05  2.2978016903915807e-05  2.2957408230590981e-05  2.2938909098983982e-05  2.2922031467230011e-05  2.2906682765759360e-05  2.2893375934475643e-05  2.2883367970038304e-05  2.2878641360462017e-05  2.2881634558830645e-05  2.2894718174507956e-05  2.2919588018934382e-05  2.2956856531474119e-05  2.3006029577831879e-05  2.3065816978965379e-05  2.3134554747854538e-05  2.3210533282446082e-05  2.3292156201217823e-05  2.3377967252250432e-05  2.3466619943497628e-05  2.3556845910295677e-05  2.3647443755520020e-05  2.3737286755917558e-05  2.3825340858294599e-05  2.3910685381321548e-05  2.3992530910713148e-05  2.4070230830385810e-05  2.4143284865067898e-05  2.4211334673070997e-05  2.4274152691643226e-05  2.4331626058342827e-05  2.4383737593068552e-05  2.4430545660604742e-05  2.4472164380791641e-05  2.4508745228941853e-05  2.4540460655110589e-05  2.4567489992126863e-05  2.4590007624658503e-05  2.4608173103981692e-05  2.4622122410598258e-05  2.4631958074390468e-05  2.4637729780847330e-05  2.4639369546164498e-05  2.4467109029530726e-05  2.4463022596583997e-05  2.4451610981859026e-05  2.4433002160343086e-05  2.4407252355762059e-05  2.4374461277011915e-05  2.4334800129737647e-05  2.4288529067909751e-05  2.4236014624623679e-05  2.4177746304112360e-05  2.4114349710987236e-05  2.4046593508956919e-05  2.3975387937701894e-05  2.3901773452283022e-05  2.3826899236296627e-05  2.3751992704819955e-05  2.3678322321304974e-05  2.3607156653795441e-05  2.3539722197368669e-05  2.3477161096928524e-05  2.3420488326362426e-05  2.3370547821328446e-05  2.3327970218400743e-05  2.3293140660445929e-05  2.3266189077861150e-05  2.3247011471289013e-05  2.3235317999093550e-05  2.3230689688187765e-05  2.3232621168723172e-05  2.3240535976940833e-05  2.3253777018300426e-05  2.3271586811295703e-05  2.3293094034380291e-05  2.3317316483634100e-05  2.3343181857889963e-05  2.3369561787915415e-05  2.3395312640612809e-05  2.3419317587481918e-05  2.3440526318414550e-05  2.3457990394219299e-05  2.3470893234783032e-05  2.3478574283145809e-05  2.3480547196153069e-05  2.3476512123713039e-05  2.3466362293407587e-05  2.3450185223176959e-05  2.3428258954580394e-05  2.3401043750194336e-05  2.3369169721616833e-05  2.3333420765397583e-05  2.3294714785625255e-05  2.3254079181693921e-05  2.3212618764344498e-05  2.3171470940440662e-05  2.3131741661575547e-05  2.3094418201939427e-05  2.3060264380891182e-05  2.3029719876523740e-05  2.3002839965291170e-05  2.2979312418134428e-05  2.2958567612598988e-05  2.2939966490022984e-05  2.2923030101808064e-05  2.2907674013211227e-05  2.2894415545066135e-05  2.2884506731607277e-05  2.2879911155463408e-05  2.2883036577672085e-05  2.2896221811109907e-05  2.2921142580805618e-05  2.2958408503918893e-05  2.3007535507932308e-05  2.3067247688996468e-05  2.3135893231604355e-05  2.3211770693073730e-05  2.3293288697701984e-05  2.3378994271710695e-05  2.3467543301821088e-05  2.3557669137142706e-05  2.3648171596496440e-05  2.3737924899457504e-05  2.3825895747993621e-05  2.3911163989210888e-05  2.3992940473560052e-05  2.4070578597248043e-05  2.4143577889529380e-05  2.4211579660539843e-05  2.4274355897991221e-05  2.4331793230563544e-05  2.4383873942130575e-05  2.4430655858709910e-05  2.4472252578388128e-05  2.4508815090756822e-05  2.4540515420391428e-05  2.4567532577265275e-05  2.4590040824551788e-05  2.4608200082536411e-05  2.4622148201970097e-05  2.4631995122664073e-05  2.4637821265017409e-05  2.4639696593176214e-05  2.4449736799646945e-05  2.4445940881685108e-05  2.4434750168299472e-05  2.4416295084782690e-05  2.4390679060448861e-05  2.4358032992458147e-05  2.4318547879805712e-05  2.4272498325419690e-05  2.4220262688025878e-05  2.4162340451477103e-05  2.4099365257510318e-05  2.4032111439477861e-05  2.3961492075666746e-05  2.3888547306407682e-05  2.3814422784580788e-05  2.3740339434645901e-05  2.3667556824975586e-05  2.3597332956179186e-05  2.3530882761892078e-05  2.3469336177786931e-05  2.3413695164103223e-05  2.3364789331451470e-05  2.3323233401850368e-05  2.3289395718617976e-05  2.3263390545665985e-05  2.3245102099706113e-05  2.3234234796881405e-05  2.3230370330630720e-05  2.3233008756265430e-05  2.3241580995979564e-05  2.3255436667288344e-05  2.3273822796966420e-05  2.3295870134760038e-05  2.3320596772505050e-05  2.3346929897249561e-05  2.3373740650514086e-05  2.3399885434491596e-05  2.3424248160393322e-05  2.3445779912632120e-05  2.3463534121068933e-05  2.3476696310416685e-05  2.3484608011170603e-05  2.3486784707999072e-05  2.3482927902140493e-05  2.3472931511741330e-05  2.3456882932446486e-05  2.3435059141262293e-05  2.3407918269032690e-05  2.3376087086918759e-05  2.3340344776565852e-05  2.3301603000355512e-05  2.3260881380615536e-05  2.3219275817854893e-05  2.3177914876484549e-05  2.3137898077059035e-05  2.3100212095438244e-05  2.3065629596235315e-05  2.3034610625705910e-05  2.3007241202277334e-05  2.2983245615356226e-05  2.2962090466010291e-05  2.2943168019760137e-05  2.2926024035246982e-05  2.2910591780209304e-05  2.2897396809113411e-05  2.2887683371774143e-05  2.2883383392737484e-05  2.2886847683945465e-05  2.2900344560312229e-05  2.2925487714007328e-05  2.2962852513080781e-05  2.3011953258939521e-05  2.3071535338235096e-05  2.3139976342349982e-05  2.3215601466907577e-05  2.3296839024728209e-05  2.3382249289304180e-05  2.3470497110221707e-05  2.3560322425102020e-05  2.3650530384385431e-05  2.3739999758723010e-05  2.3827701134776130e-05  2.3912717533920969e-05  2.3994262193446951e-05  2.4071690065861258e-05  2.4144501420576621e-05  2.4212337561036707e-05  2.4274969831112600e-05  2.4332283711190866e-05  2.4384259972547429e-05  2.4430954700535375e-05  2.4472479650611197e-05  2.4508983983254635e-05  2.4540638019149542e-05  2.4567619316677494e-05  2.4590101127554508e-05  2.4608243154641061e-05  2.4622184570944241e-05  2.4632039623540428e-05  2.4637897197272976e-05  2.4639827202326658e-05  2.4421574242717835e-05  2.4417880894184091e-05  2.4406844041412808e-05  2.4388556345623407e-05  2.4363129286422158e-05  2.4330712451795963e-05  2.4291516450263470e-05  2.4245834572980242e-05  2.4194062538679407e-05  2.4136715329906827e-05  2.4074439406380717e-05  2.4008018291831606e-05  2.3938369764334732e-05  2.3866533595929870e-05  2.3793649872378802e-05  2.3720929150705929e-05  2.3649616712801724e-05  2.3580953495089004e-05  2.3516135592308543e-05  2.3456272732503662e-05  2.3402344869120075e-05  2.3355156899026014e-05  2.3315295833558411e-05  2.3283100927584887e-05  2.3258659890383520e-05  2.3241837830815044e-05  2.3232330972486133e-05  2.3229723800960194e-05  2.3233526756635218e-05  2.3243183672266840e-05  2.3258055180483446e-05  2.3277395131519559e-05  2.3300336859629753e-05  2.3325898173822102e-05  2.3353004859768253e-05  2.3380526944613154e-05  2.3407320801072309e-05  2.3432271640846842e-05  2.3454333048463871e-05  2.3472561818043861e-05  2.3486147280243050e-05  2.3494434774264163e-05  2.3496943181635000e-05  2.3493376622430962e-05  2.3483630550170175e-05  2.3467792567384234e-05  2.3446138329795740e-05  2.3419122935246151e-05  2.3387368208008501e-05  2.3351646230990995e-05  2.3312859187889387e-05  2.3272014801385097e-05  2.3230195174930704e-05  2.3188514838388771e-05  2.3148062394554160e-05  2.3109821808605940e-05  2.3074576956776493e-05  2.3042816922085622e-05  2.3014673934515480e-05  2.2989929511510289e-05  2.2968109118467318e-05  2.2948657255807774e-05  2.2931161016052902e-05  2.2915582527601544e-05  2.2902460295895958e-05  2.2893026938791928e-05  2.2889167275353180e-05  2.2893146870155082e-05  2.2907126422692437e-05  2.2932621463781529e-05  2.2970148897049769e-05  2.3019214553440611e-05  2.3078593054225112e-05  2.3146706739565604e-05  2.3221923193189264e-05  2.3302702900373948e-05  2.3387628084030181e-05  2.3475378552515585e-05  2.3564705375030138e-05  2.3654422877345412e-05  2.3743417781400332e-05  2.3830667537421173e-05  2.3915260853076671e-05  2.3996415337657915e-05  2.4073488909495779e-05  2.4145983394870943e-05  2.4213540338034580e-05  2.4275930178663370e-05  2.4333036569085077e-05  2.4384837771191957e-05  2.4431386920220198e-05  2.4472792604116121e-05  2.4509200798016529e-05  2.4540778797389326e-05  2.4567701462729137e-05  2.4590139850307099e-05  2.4608252169877839e-05  2.4622176988937502e-05  2.4632028682201427e-05  2.4637895140831458e-05  2.4639836841328590e-05  2.4382539203167817e-05  2.4378906985486142e-05  2.4368003575305878e-05  2.4349903771066232e-05  2.4324722375364183e-05  2.4292623814229555e-05  2.4253838569010112e-05  2.4208681560755041e-05  2.4157569962196488e-05  2.4101038450196161e-05  2.4039749879334624e-05  2.3974499403317336e-05  2.3906210445065374e-05  2.3835921672932752e-05  2.3764765195443441e-05  2.3693937310333608e-05  2.3624663959476306e-05  2.3558163115006894e-05  2.3495605415745823e-05  2.3438072846477600e-05  2.3386514409673240e-05  2.3341699532393324e-05  2.3304175244869705e-05  2.3274239354478225e-05  2.3251942868083547e-05  2.3237126020800482e-05  2.3229476338709942e-05  2.3228584947096161e-05  2.3233978682954884e-05  2.3245120096489250e-05  2.3261384851939948e-05  2.3282035401206060e-05  2.3306207655520258e-05  2.3332918195197625e-05  2.3361090320372192e-05  2.3389592251271980e-05  2.3417280266039969e-05  2.3443041457680651e-05  2.3465833030812702e-05  2.3484716639042509e-05  2.3498887108063658e-05  2.3507695290984737e-05  2.3510665025444056e-05  2.3507504325464657e-05  2.3498111061903212e-05  2.3482573454890524e-05  2.3461165728013426e-05  2.3434339282792663e-05  2.3402709756631618e-05  2.3367040286148053e-05  2.3328221077517083e-05  2.3287244763171264e-05  2.3245175789915531e-05  2.3203110335592318e-05  2.3162121894766341e-05  2.3123188791185164e-05  2.3087106117952886e-05  2.3054396769759442e-05  2.3025249918224147e-05  2.2999520664510260e-05  2.2976813205087008e-05  2.2956644440988310e-05  2.2938660101213449e-05  2.2922863105369427e-05  2.2909809288171329e-05  2.2900714205500030e-05  2.2897398789467338e-05  2.2902016465139970e-05  2.2916588850529351e-05  2.2942505776985616e-05  2.2980209411873056e-05  2.3029194429310914e-05  2.3088272436206796e-05  2.3155922983967678e-05  2.3230568351817987e-05  2.3310710978740249e-05  2.3394962086463844e-05  2.3482021573288942e-05  2.3570655724812891e-05  2.3659691586714144e-05  2.3748026997882090e-05  2.3834649048705880e-05  2.3918654456580679e-05  2.3999267006078853e-05  2.4075848819839966e-05  2.4147903946076423e-05  2.4215074292079078e-05  2.4277129036969747e-05  2.4333949257233635e-05  2.4385509664116921e-05  2.4431859205749189e-05  2.4473101958824075e-05  2.4509379336440296e-05  2.4540854251967750e-05  2.4567697553760126e-05  2.4590076805546762e-05  2.4608147335307554e-05  2.4622045395394914e-05  2.4631883218782133e-05  2.4637745588970607e-05  2.4639687002981941e-05  2.4332723770472354e-05  2.4329149340525196e-05  2.4318389010981403e-05  2.4300514316794727e-05  2.4275647316058029e-05  2.4243968432920612e-05  2.4205729647087219e-05  2.4161270048387750e-05  2.4111031264488323e-05  2.4055570535127656e-05  2.3995569324420842e-05  2.3931835582271786e-05  2.3865298250990720e-05  2.3796993406553782e-05  2.3728042432838937e-05  2.3659623605445347e-05  2.3592939026206863e-05  2.3529178609992588e-05  2.3469481680931264e-05  2.3414895293392113e-05  2.3366328261150351e-05  2.3324502977688961e-05  2.3289913461681130e-05  2.3262803758346289e-05  2.3243179357100651e-05  2.3230852322914933e-05  2.3225503849661973e-05  2.3226737935053762e-05  2.3234105161249715e-05  2.3247092846635978e-05  2.3265095199310090e-05  2.3287384260476309e-05  2.3313097789125954e-05  2.3341249702604363e-05  2.3370759482557412e-05  2.3400492767926726e-05  2.3429305677987804e-05  2.3456087789355782e-05  2.3479801056073267e-05  2.3499513473516486e-05  2.3514427019790332e-05  2.3523899726813904e-05  2.3527461911449530e-05  2.3524826738280795e-05  2.3515895390928266e-05  2.3500757179981795e-05  2.3479684918802545e-05  2.3453125883115395e-05  2.3421688659833686e-05  2.3386126161323541e-05  2.3347314928476620e-05  2.3306230380984292e-05  2.3263916701885564e-05  2.3221448600592437e-05  2.3179880965636391e-05  2.3140183089042979e-05  2.3103159055481211e-05  2.3069366137493380e-05  2.3039055556149261e-05  2.3012166629944017e-05  2.2988397793315012e-05  2.2967356252945816e-05  2.2948763062745438e-05  2.2932673650669024e-05  2.2919664770758364e-05  2.2910928458101267e-05  2.2908205538060481e-05  2.2913514688579224e-05  2.2928715384325083e-05  2.2955054354706733e-05  2.2992890805358585e-05  2.3041708964667401e-05  2.3100364075880814e-05  2.3167401803930497e-05  2.3241307570535782e-05  2.3320632596924490e-05  2.3404022334582593e-05  2.3490200925654651e-05  2.3577953435044102e-05  2.3666122840563185e-05  2.3753620998720438e-05  2.3839447176204015e-05  2.3922708194033038e-05  2.4002635595658260e-05  2.4078596742532730e-05  2.4150098389498752e-05  2.4216782778527900e-05  2.4278417353610463e-05  2.4334879780689585e-05  2.4386140119521437e-05  2.4432241856062615e-05  2.4473283188686044e-05  2.4509399576426968e-05  2.4540748181267881e-05  2.4567494517219956e-05  2.4589801377713999e-05  2.4607819949306169e-05  2.4621682916052776e-05  2.4631499279373909e-05  2.4637350512179687e-05  2.4639287516064714e-05  2.4272356902609396e-05  2.4268849396597822e-05  2.4258259829389053e-05  2.4240664198407783e-05  2.4216196218284483e-05  2.4185054843063867e-05  2.4147515584882145e-05  2.4103943708996036e-05  2.4054807188237089e-05  2.4000687302770511e-05  2.3942284883689981e-05  2.3880420493354131e-05  2.3816027384373971e-05  2.3750136878789120e-05  2.3683856731638157e-05  2.3618343813708968e-05  2.3554772687629187e-05  2.3494301052874340e-05  2.3438031695947877e-05  2.3386969459712062e-05  2.3341972769087998e-05  2.3303703998812212e-05  2.3272590159448037e-05  2.3248809676745401e-05  2.3232315985175644e-05  2.3222893282179369e-05  2.3220222586726643e-05  2.3223929876379355e-05  2.3233598229938100e-05  2.3248745829587514e-05  2.3268788154977594e-05  2.3293006796368588e-05  2.3320539761047033e-05  2.3350396311355117e-05  2.3381490507291850e-05  2.3412684547479210e-05  2.3442834326205271e-05  2.3470832517019678e-05  2.3495646942071689e-05  2.3516353379575029e-05  2.3532162551330904e-05  2.3542441254368479e-05  2.3546727731207124e-05  2.3544741493314252e-05  2.3536387902872725e-05  2.3521757850211674e-05  2.3501122842014536e-05  2.3474925772208767e-05  2.3443767616582323e-05  2.3408390267640701e-05  2.3369655630676556e-05  2.3328520782328043e-05  2.3286008278264051e-05  2.3243169577860899e-05  2.3201038517500811e-05  2.3160572128027302e-05  2.3122579821346406e-05  2.3087650296172736e-05  2.3056096497566415e-05  2.3027946225476748e-05  2.3003001783625324e-05  2.2980974296771848e-05  2.2961674258021628e-05  2.2945219815013527e-05  2.2932211273896222e-05  2.2923810808848475e-05  2.2921665667116348e-05  2.2927643838745880e-05  2.2943429543378972e-05  2.2970119346495745e-05  2.3007988527724045e-05  2.3056513983215348e-05  2.3114599489802200e-05  2.3180861944699665e-05  2.3253854527045061e-05  2.3332181208702560e-05  2.3414525147435537e-05  2.3499637927147738e-05  2.3586326428145850e-05  2.3673452424146021e-05  2.3759944402721916e-05  2.3844816075792440e-05  2.3927186204168525e-05  2.4006295427696802e-05  2.4081517154256632e-05  2.4152361130486922e-05  2.4218469738329784e-05  2.4279608081137200e-05  2.4335649482880434e-05  2.4386558184628567e-05  2.4432370893830486e-05  2.4473178541717155e-05  2.4509109234524490e-05  2.4540313020639301e-05  2.4566948784400693e-05  2.4589173338502441e-05  2.4607132621199216e-05  2.4620954798588261e-05  2.4630745005712157e-05  2.4636581417611412e-05  2.4638512342150578e-05  2.4201822454205676e-05  2.4198396457011667e-05  2.4188017299343167e-05  2.4170769427159197e-05  2.4146801335161305e-05  2.4116332653707949e-05  2.4079663942156812e-05  2.4037187713934434e-05  2.3989398892086812e-05  2.3936902803837055e-05  2.3880418932961599e-05  2.3820778983854403e-05  2.3758918387278418e-05  2.3695861140143032e-05  2.3632698645630558e-05  2.3570563703204062e-05  2.3510600644258279e-05  2.3453931642634567e-05  2.3401617843471668e-05  2.3354613581514157e-05  2.3313714686956593e-05  2.3279508414826957e-05  2.3252339872923964e-05  2.3232311374412257e-05  2.3219321437148941e-05  2.3213131622852614e-05  2.3213433557204525e-05  2.3219887411044197e-05  2.3232118716304403e-05  2.3249682295526461e-05  2.3272016514245548e-05  2.3298411235747901e-05  2.3328002153847749e-05  2.3359791304848694e-05  2.3392685458433899e-05  2.3425542432134532e-05  2.3457217817559212e-05  2.3486607986143119e-05  2.3512687701973199e-05  2.3534541884315829e-05  2.3551391477611743e-05  2.3562613502877311e-05  2.3567755447867751e-05  2.3566544255553332e-05  2.3558890248778257e-05  2.3544886343108460e-05  2.3524802851421345e-05  2.3499078110250184e-05  2.3468305102065340e-05  2.3433214219817070e-05  2.3394652267905181e-05  2.3353557597365173e-05  2.3310930789334451e-05  2.3267799497371050e-05  2.3225175270024939e-05  2.3184000386146383e-05  2.3145085524520100e-05  2.3109045658866118e-05  2.3076250823674771e-05  2.3046815538611241e-05  2.3020648939698825e-05  2.2997573632979943e-05  2.2977499062471179e-05  2.2960613386690192e-05  2.2947541990471579e-05  2.2939412157421482e-05  2.2937768731097103e-05  2.2944321250710979e-05  2.2960575776320316e-05  2.2987480984019468e-05  2.3025233053134310e-05  2.3073306003798792e-05  2.3130654991492288e-05  2.3195969751132251e-05  2.3267872470317475e-05  2.3345021385721543e-05  2.3426139338975832e-05  2.3510007721020539e-05  2.3595457779089087e-05  2.3681372602861911e-05  2.3766699628095664e-05  2.3850469000002931e-05  2.3931812983519032e-05  2.4009982394159185e-05  2.4084357257767428e-05  2.4154450392213291e-05  2.4219903954609672e-05  2.4280479969372713e-05  2.4336046389963633e-05  2.4386560406223729e-05  2.4432050592131954e-05  2.4472599206051343e-05  2.4508325603788075e-05  2.4539371376048651e-05  2.4565887520799301e-05  2.4588023728025501e-05  2.4605919691674467e-05  2.4619698262116025e-05  2.4629460199410437e-05  2.4635280275326670e-05  2.4637204508758830e-05  2.4121690402122067e-05  2.4118363325161079e-05  2.4108242711974651e-05  2.4091423457372290e-05  2.4068070539315712e-05  2.4038425350402296e-05  2.4002813940277596e-05  2.3961655890248888e-05  2.3915472259194201e-05  2.3864890961392710e-05  2.3810648074198016e-05  2.3753583937972786e-05  2.3694633478778179e-05  2.3634810849733607e-05  2.3575189029724298e-05  2.3516875130726572e-05  2.3460981570011451e-05  2.3408591994729496e-05  2.3360719771197871e-05  2.3318257884537627e-05  2.3281924012678796e-05  2.3252212562996983e