<?xml version="1.0"?>
<VTKFile type="UnstructuredGrid"  version="0.1"  >
<UnstructuredGrid>
<Piece  NumberOfPoints="10201" NumberOfCells="20000">
<Points>
<DataArray  type="Float64"  NumberOfComponents="3"  format="ascii">0 0 0  0.25 0 0  0.5 0 0  0.75 0 0  1 0 0  1.25 0 0  1.5 0 0  1.75 0 0  2 0 0  2.25 0 0  2.5 0 0  2.75 0 0  3 0 0  3.25 0 0  3.5 0 0  3.75 0 0  4 0 0  4.25 0 0  4.5 0 0  4.75 0 0  5 0 0  5.25 0 0  5.5 0 0  5.75 0 0  6 0 0  6.25 0 0  6.5 0 0  6.75 0 0  7 0 0  7.25 0 0  7.5 0 0  7.75 0 0  8 0 0  8.25 0 0  8.5 0 0  8.75 0 0  9 0 0  9.25 0 0  9.5 0 0  9.75 0 0  10 0 0  10.25 0 0  10.5 0 0  10.75 0 0  11 0 0  11.25 0 0  11.5 0 0  11.75 0 0  12 0 0  12.25 0 0  12.5 0 0  12.75 0 0  13 0 0  13.25 0 0  13.5 0 0  13.75 0 0  14 0 0  14.25 0 0  14.5 0 0  14.75 0 0  15 0 0  15.25 0 0  15.5 0 0  15.75 0 0  16 0 0  16.25 0 0  16.5 0 0  16.75 0 0  17 0 0  17.25 0 0  17.5 0 0  17.75 0 0  18 0 0  18.25 0 0  18.5 0 0  18.75 0 0  19 0 0  19.25 0 0  19.5 0 0  19.75 0 0  20 0 0  20.25 0 0  20.5 0 0  20.75 0 0  21 0 0  21.25 0 0  21.5 0 0  21.75 0 0  22 0 0  22.25 0 0  22.5 0 0  22.75 0 0  23 0 0  23.25 0 0  23.5 0 0  23.75 0 0  24 0 0  24.25 0 0  24.5 0 0  24.75 0 0  25 0 0  0 0.25 0  0.25 0.25 0  0.5 0.25 0  0.75 0.25 0  1 0.25 0  1.25 0.25 0  1.5 0.25 0  1.75 0.25 0  2 0.25 0  2.25 0.25 0  2.5 0.25 0  2.75 0.25 0  3 0.25 0  3.25 0.25 0  3.5 0.25 0  3.75 0.25 0  4 0.25 0  4.25 0.25 0  4.5 0.25 0  4.75 0.25 0  5 0.25 0  5.25 0.25 0  5.5 0.25 0  5.75 0.25 0  6 0.25 0  6.25 0.25 0  6.5 0.25 0  6.75 0.25 0  7 0.25 0  7.25 0.25 0  7.5 0.25 0  7.75 0.25 0  8 0.25 0  8.25 0.25 0  8.5 0.25 0  8.75 0.25 0  9 0.25 0  9.25 0.25 0  9.5 0.25 0  9.75 0.25 0  10 0.25 0  10.25 0.25 0  10.5 0.25 0  10.75 0.25 0  11 0.25 0  11.25 0.25 0  11.5 0.25 0  11.75 0.25 0  12 0.25 0  12.25 0.25 0  12.5 0.25 0  12.75 0.25 0  13 0.25 0  13.25 0.25 0  13.5 0.25 0  13.75 0.25 0  14 0.25 0  14.25 0.25 0  14.5 0.25 0  14.75 0.25 0  15 0.25 0  15.25 0.25 0  15.5 0.25 0  15.75 0.25 0  16 0.25 0  16.25 0.25 0  16.5 0.25 0  16.75 0.25 0  17 0.25 0  17.25 0.25 0  17.5 0.25 0  17.75 0.25 0  18 0.25 0  18.25 0.25 0  18.5 0.25 0  18.75 0.25 0  19 0.25 0  19.25 0.25 0  19.5 0.25 0  19.75 0.25 0  20 0.25 0  20.25 0.25 0  20.5 0.25 0  20.75 0.25 0  21 0.25 0  21.25 0.25 0  21.5 0.25 0  21.75 0.25 0  22 0.25 0  22.25 0.25 0  22.5 0.25 0  22.75 0.25 0  23 0.25 0  23.25 0.25 0  23.5 0.25 0  23.75 0.25 0  24 0.25 0  24.25 0.25 0  24.5 0.25 0  24.75 0.25 0  25 0.25 0  0 0.5 0  0.25 0.5 0  0.5 0.5 0  0.75 0.5 0  1 0.5 0  1.25 0.5 0  1.5 0.5 0  1.75 0.5 0  2 0.5 0  2.25 0.5 0  2.5 0.5 0  2.75 0.5 0  3 0.5 0  3.25 0.5 0  3.5 0.5 0  3.75 0.5 0  4 0.5 0  4.25 0.5 0  4.5 0.5 0  4.75 0.5 0  5 0.5 0  5.25 0.5 0  5.5 0.5 0  5.75 0.5 0  6 0.5 0  6.25 0.5 0  6.5 0.5 0  6.75 0.5 0  7 0.5 0  7.25 0.5 0  7.5 0.5 0  7.75 0.5 0  8 0.5 0  8.25 0.5 0  8.5 0.5 0  8.75 0.5 0  9 0.5 0  9.25 0.5 0  9.5 0.5 0  9.75 0.5 0  10 0.5 0  10.25 0.5 0  10.5 0.5 0  10.75 0.5 0  11 0.5 0  11.25 0.5 0  11.5 0.5 0  11.75 0.5 0  12 0.5 0  12.25 0.5 0  12.5 0.5 0  12.75 0.5 0  13 0.5 0  13.25 0.5 0  13.5 0.5 0  13.75 0.5 0  14 0.5 0  14.25 0.5 0  14.5 0.5 0  14.75 0.5 0  15 0.5 0  15.25 0.5 0  15.5 0.5 0  15.75 0.5 0  16 0.5 0  16.25 0.5 0  16.5 0.5 0  16.75 0.5 0  17 0.5 0  17.25 0.5 0  17.5 0.5 0  17.75 0.5 0  18 0.5 0  18.25 0.5 0  18.5 0.5 0  18.75 0.5 0  19 0.5 0  19.25 0.5 0  19.5 0.5 0  19.75 0.5 0  20 0.5 0  20.25 0.5 0  20.5 0.5 0  20.75 0.5 0  21 0.5 0  21.25 0.5 0  21.5 0.5 0  21.75 0.5 0  22 0.5 0  22.25 0.5 0  22.5 0.5 0  22.75 0.5 0  23 0.5 0  23.25 0.5 0  23.5 0.5 0  23.75 0.5 0  24 0.5 0  24.25 0.5 0  24.5 0.5 0  24.75 0.5 0  25 0.5 0  0 0.75 0  0.25 0.75 0  0.5 0.75 0  0.75 0.75 0  1 0.75 0  1.25 0.75 0  1.5 0.75 0  1.75 0.75 0  2 0.75 0  2.25 0.75 0  2.5 0.75 0  2.75 0.75 0  3 0.75 0  3.25 0.75 0  3.5 0.75 0  3.75 0.75 0  4 0.75 0  4.25 0.75 0  4.5 0.75 0  4.75 0.75 0  5 0.75 0  5.25 0.75 0  5.5 0.75 0  5.75 0.75 0  6 0.75 0  6.25 0.75 0  6.5 0.75 0  6.75 0.75 0  7 0.75 0  7.25 0.75 0  7.5 0.75 0  7.75 0.75 0  8 0.75 0  8.25 0.75 0  8.5 0.75 0  8.75 0.75 0  9 0.75 0  9.25 0.75 0  9.5 0.75 0  9.75 0.75 0  10 0.75 0  10.25 0.75 0  10.5 0.75 0  10.75 0.75 0  11 0.75 0  11.25 0.75 0  11.5 0.75 0  11.75 0.75 0  12 0.75 0  12.25 0.75 0  12.5 0.75 0  12.75 0.75 0  13 0.75 0  13.25 0.75 0  13.5 0.75 0  13.75 0.75 0  14 0.75 0  14.25 0.75 0  14.5 0.75 0  14.75 0.75 0  15 0.75 0  15.25 0.75 0  15.5 0.75 0  15.75 0.75 0  16 0.75 0  16.25 0.75 0  16.5 0.75 0  16.75 0.75 0  17 0.75 0  17.25 0.75 0  17.5 0.75 0  17.75 0.75 0  18 0.75 0  18.25 0.75 0  18.5 0.75 0  18.75 0.75 0  19 0.75 0  19.25 0.75 0  19.5 0.75 0  19.75 0.75 0  20 0.75 0  20.25 0.75 0  20.5 0.75 0  20.75 0.75 0  21 0.75 0  21.25 0.75 0  21.5 0.75 0  21.75 0.75 0  22 0.75 0  22.25 0.75 0  22.5 0.75 0  22.75 0.75 0  23 0.75 0  23.25 0.75 0  23.5 0.75 0  23.75 0.75 0  24 0.75 0  24.25 0.75 0  24.5 0.75 0  24.75 0.75 0  25 0.75 0  0 1 0  0.25 1 0  0.5 1 0  0.75 1 0  1 1 0  1.25 1 0  1.5 1 0  1.75 1 0  2 1 0  2.25 1 0  2.5 1 0  2.75 1 0  3 1 0  3.25 1 0  3.5 1 0  3.75 1 0  4 1 0  4.25 1 0  4.5 1 0  4.75 1 0  5 1 0  5.25 1 0  5.5 1 0  5.75 1 0  6 1 0  6.25 1 0  6.5 1 0  6.75 1 0  7 1 0  7.25 1 0  7.5 1 0  7.75 1 0  8 1 0  8.25 1 0  8.5 1 0  8.75 1 0  9 1 0  9.25 1 0  9.5 1 0  9.75 1 0  10 1 0  10.25 1 0  10.5 1 0  10.75 1 0  11 1 0  11.25 1 0  11.5 1 0  11.75 1 0  12 1 0  12.25 1 0  12.5 1 0  12.75 1 0  13 1 0  13.25 1 0  13.5 1 0  13.75 1 0  14 1 0  14.25 1 0  14.5 1 0  14.75 1 0  15 1 0  15.25 1 0  15.5 1 0  15.75 1 0  16 1 0  16.25 1 0  16.5 1 0  16.75 1 0  17 1 0  17.25 1 0  17.5 1 0  17.75 1 0  18 1 0  18.25 1 0  18.5 1 0  18.75 1 0  19 1 0  19.25 1 0  19.5 1 0  19.75 1 0  20 1 0  20.25 1 0  20.5 1 0  20.75 1 0  21 1 0  21.25 1 0  21.5 1 0  21.75 1 0  22 1 0  22.25 1 0  22.5 1 0  22.75 1 0  23 1 0  23.25 1 0  23.5 1 0  23.75 1 0  24 1 0  24.25 1 0  24.5 1 0  24.75 1 0  25 1 0  0 1.25 0  0.25 1.25 0  0.5 1.25 0  0.75 1.25 0  1 1.25 0  1.25 1.25 0  1.5 1.25 0  1.75 1.25 0  2 1.25 0  2.25 1.25 0  2.5 1.25 0  2.75 1.25 0  3 1.25 0  3.25 1.25 0  3.5 1.25 0  3.75 1.25 0  4 1.25 0  4.25 1.25 0  4.5 1.25 0  4.75 1.25 0  5 1.25 0  5.25 1.25 0  5.5 1.25 0  5.75 1.25 0  6 1.25 0  6.25 1.25 0  6.5 1.25 0  6.75 1.25 0  7 1.25 0  7.25 1.25 0  7.5 1.25 0  7.75 1.25 0  8 1.25 0  8.25 1.25 0  8.5 1.25 0  8.75 1.25 0  9 1.25 0  9.25 1.25 0  9.5 1.25 0  9.75 1.25 0  10 1.25 0  10.25 1.25 0  10.5 1.25 0  10.75 1.25 0  11 1.25 0  11.25 1.25 0  11.5 1.25 0  11.75 1.25 0  12 1.25 0  12.25 1.25 0  12.5 1.25 0  12.75 1.25 0  13 1.25 0  13.25 1.25 0  13.5 1.25 0  13.75 1.25 0  14 1.25 0  14.25 1.25 0  14.5 1.25 0  14.75 1.25 0  15 1.25 0  15.25 1.25 0  15.5 1.25 0  15.75 1.25 0  16 1.25 0  16.25 1.25 0  16.5 1.25 0  16.75 1.25 0  17 1.25 0  17.25 1.25 0  17.5 1.25 0  17.75 1.25 0  18 1.25 0  18.25 1.25 0  18.5 1.25 0  18.75 1.25 0  19 1.25 0  19.25 1.25 0  19.5 1.25 0  19.75 1.25 0  20 1.25 0  20.25 1.25 0  20.5 1.25 0  20.75 1.25 0  21 1.25 0  21.25 1.25 0  21.5 1.25 0  21.75 1.25 0  22 1.25 0  22.25 1.25 0  22.5 1.25 0  22.75 1.25 0  23 1.25 0  23.25 1.25 0  23.5 1.25 0  23.75 1.25 0  24 1.25 0  24.25 1.25 0  24.5 1.25 0  24.75 1.25 0  25 1.25 0  0 1.5 0  0.25 1.5 0  0.5 1.5 0  0.75 1.5 0  1 1.5 0  1.25 1.5 0  1.5 1.5 0  1.75 1.5 0  2 1.5 0  2.25 1.5 0  2.5 1.5 0  2.75 1.5 0  3 1.5 0  3.25 1.5 0  3.5 1.5 0  3.75 1.5 0  4 1.5 0  4.25 1.5 0  4.5 1.5 0  4.75 1.5 0  5 1.5 0  5.25 1.5 0  5.5 1.5 0  5.75 1.5 0  6 1.5 0  6.25 1.5 0  6.5 1.5 0  6.75 1.5 0  7 1.5 0  7.25 1.5 0  7.5 1.5 0  7.75 1.5 0  8 1.5 0  8.25 1.5 0  8.5 1.5 0  8.75 1.5 0  9 1.5 0  9.25 1.5 0  9.5 1.5 0  9.75 1.5 0  10 1.5 0  10.25 1.5 0  10.5 1.5 0  10.75 1.5 0  11 1.5 0  11.25 1.5 0  11.5 1.5 0  11.75 1.5 0  12 1.5 0  12.25 1.5 0  12.5 1.5 0  12.75 1.5 0  13 1.5 0  13.25 1.5 0  13.5 1.5 0  13.75 1.5 0  14 1.5 0  14.25 1.5 0  14.5 1.5 0  14.75 1.5 0  15 1.5 0  15.25 1.5 0  15.5 1.5 0  15.75 1.5 0  16 1.5 0  16.25 1.5 0  16.5 1.5 0  16.75 1.5 0  17 1.5 0  17.25 1.5 0  17.5 1.5 0  17.75 1.5 0  18 1.5 0  18.25 1.5 0  18.5 1.5 0  18.75 1.5 0  19 1.5 0  19.25 1.5 0  19.5 1.5 0  19.75 1.5 0  20 1.5 0  20.25 1.5 0  20.5 1.5 0  20.75 1.5 0  21 1.5 0  21.25 1.5 0  21.5 1.5 0  21.75 1.5 0  22 1.5 0  22.25 1.5 0  22.5 1.5 0  22.75 1.5 0  23 1.5 0  23.25 1.5 0  23.5 1.5 0  23.75 1.5 0  24 1.5 0  24.25 1.5 0  24.5 1.5 0  24.75 1.5 0  25 1.5 0  0 1.75 0  0.25 1.75 0  0.5 1.75 0  0.75 1.75 0  1 1.75 0  1.25 1.75 0  1.5 1.75 0  1.75 1.75 0  2 1.75 0  2.25 1.75 0  2.5 1.75 0  2.75 1.75 0  3 1.75 0  3.25 1.75 0  3.5 1.75 0  3.75 1.75 0  4 1.75 0  4.25 1.75 0  4.5 1.75 0  4.75 1.75 0  5 1.75 0  5.25 1.75 0  5.5 1.75 0  5.75 1.75 0  6 1.75 0  6.25 1.75 0  6.5 1.75 0  6.75 1.75 0  7 1.75 0  7.25 1.75 0  7.5 1.75 0  7.75 1.75 0  8 1.75 0  8.25 1.75 0  8.5 1.75 0  8.75 1.75 0  9 1.75 0  9.25 1.75 0  9.5 1.75 0  9.75 1.75 0  10 1.75 0  10.25 1.75 0  10.5 1.75 0  10.75 1.75 0  11 1.75 0  11.25 1.75 0  11.5 1.75 0  11.75 1.75 0  12 1.75 0  12.25 1.75 0  12.5 1.75 0  12.75 1.75 0  13 1.75 0  13.25 1.75 0  13.5 1.75 0  13.75 1.75 0  14 1.75 0  14.25 1.75 0  14.5 1.75 0  14.75 1.75 0  15 1.75 0  15.25 1.75 0  15.5 1.75 0  15.75 1.75 0  16 1.75 0  16.25 1.75 0  16.5 1.75 0  16.75 1.75 0  17 1.75 0  17.25 1.75 0  17.5 1.75 0  17.75 1.75 0  18 1.75 0  18.25 1.75 0  18.5 1.75 0  18.75 1.75 0  19 1.75 0  19.25 1.75 0  19.5 1.75 0  19.75 1.75 0  20 1.75 0  20.25 1.75 0  20.5 1.75 0  20.75 1.75 0  21 1.75 0  21.25 1.75 0  21.5 1.75 0  21.75 1.75 0  22 1.75 0  22.25 1.75 0  22.5 1.75 0  22.75 1.75 0  23 1.75 0  23.25 1.75 0  23.5 1.75 0  23.75 1.75 0  24 1.75 0  24.25 1.75 0  24.5 1.75 0  24.75 1.75 0  25 1.75 0  0 2 0  0.25 2 0  0.5 2 0  0.75 2 0  1 2 0  1.25 2 0  1.5 2 0  1.75 2 0  2 2 0  2.25 2 0  2.5 2 0  2.75 2 0  3 2 0  3.25 2 0  3.5 2 0  3.75 2 0  4 2 0  4.25 2 0  4.5 2 0  4.75 2 0  5 2 0  5.25 2 0  5.5 2 0  5.75 2 0  6 2 0  6.25 2 0  6.5 2 0  6.75 2 0  7 2 0  7.25 2 0  7.5 2 0  7.75 2 0  8 2 0  8.25 2 0  8.5 2 0  8.75 2 0  9 2 0  9.25 2 0  9.5 2 0  9.75 2 0  10 2 0  10.25 2 0  10.5 2 0  10.75 2 0  11 2 0  11.25 2 0 
[...]
<PointData  Scalars="f_26"> 
<DataArray  type="Float64"  Name="f_26"  format="ascii">2.3495558035318947e-05  2.3495356390785838e-05  2.3495006630022426e-05  2.3494403159615967e-05  2.3493432685411311e-05  2.3491959581589795e-05  2.3489829585561387e-05  2.3486879133692719e-05  2.3482947019847517e-05  2.3477887060384191e-05  2.3471580873355495e-05  2.3463949954119872e-05  2.3454966238620422e-05  2.3444660369224823e-05  2.3433126948389325e-05  2.3420526199140697e-05  2.3407081654089575e-05  2.3393073759716929e-05  2.3378829590010361e-05  2.3364709181317819e-05  2.3351089289398013e-05  2.3338345590828784e-05  2.3326834473144383e-05  2.3316875565912099e-05  2.3308736063009908e-05  2.3302617698679266e-05  2.3298647004066825e-05  2.3296869227848365e-05  2.3297246087149103e-05  2.3299657340194279e-05  2.3303906038655171e-05  2.3309727210748653e-05  2.3316799626317846e-05  2.3324760186793280e-05  2.3333220359842812e-05  2.3341783945025353e-05  2.3350065326205683e-05  2.3357707258146251e-05  2.3364397170415797e-05  2.3369880972545730e-05  2.3373973426991006e-05  2.3376564330210774e-05  2.3377620006146314e-05  2.3377179957494530e-05  2.3375348912728790e-05  2.3372284913610360e-05  2.3368184463649624e-05  2.3363266054690204e-05  2.3357753563081835e-05  2.3351861027410680e-05  2.3345780173534890e-05  2.3339671748935609e-05  2.3333661298539161e-05  2.3327839508040886e-05  2.3322266719778640e-05  2.3316980754607686e-05  2.3312006809052237e-05  2.3307367984251339e-05  2.3303094966395676e-05  2.3299233520028006e-05  2.3295848756859442e-05  2.3293025566323261e-05  2.3290865089122278e-05  2.3289477623231333e-05  2.3288972813879261e-05  2.3289448340767012e-05  2.3290978533433097e-05  2.3293604390213084e-05  2.3297326336651333e-05  2.3302100745092730e-05  2.3307840780120807e-05  2.3314421587466466e-05  2.3321689277105366e-05  2.3329472643419668e-05  2.3337596192435187e-05  2.3345892868079901e-05  2.3354214918468175e-05  2.3362441617170266e-05  2.3370483015444930e-05  2.3378279481337421e-05  2.3385797392579060e-05  2.3393021899066878e-05  2.3399948073608302e-05  2.3406571965786951e-05  2.3412883034911968e-05  2.3418859172416604e-05  2.3424465075211169e-05  2.3429654170805513e-05  2.3434373710557589e-05  2.3438572130006797e-05  2.3442207404340454e-05  2.3445254958397188e-05  2.3447713747986811e-05  2.3449609401228961e-05  2.3450993750753030e-05  2.3451940630006221e-05  2.3452538364061974e-05  2.3452879864288699e-05  2.3453051528646093e-05  2.3453122046774590e-05  2.3453130950043602e-05  2.3494877785291304e-05  2.3494751879310198e-05  2.3494413870520516e-05  2.3493805795658209e-05  2.3492825870319789e-05  2.3491342313421626e-05  2.3489203037616584e-05  2.3486246303101702e-05  2.3482312654121143e-05  2.3477257604537981e-05  2.3470964362118661e-05  2.3463355822608291e-05  2.3454405043001095e-05  2.3444143420021611e-05  2.3432665868626430e-05  2.3420132428196595e-05  2.3406765925276134e-05  2.3392845584252529e-05  2.3378696781478241e-05  2.3364677452629244e-05  2.3351161949028729e-05  2.3338523357480152e-05  2.3327115419106790e-05  2.3317255190421424e-05  2.3309207488728754e-05  2.3303171977679720e-05  2.3299273514503782e-05  2.3297556138720129e-05  2.3297980865821373e-05  2.3300427275470522e-05  2.3304698751120590e-05  2.3310531122203098e-05  2.3317604361825844e-05  2.3325556886647688e-05  2.3334001884709057e-05  2.3342544965428362e-05  2.3350802296631418e-05  2.3358418285339192e-05  2.3365081793845735e-05  2.3370539881497355e-05  2.3374608142596126e-05  2.3377176881676684e-05  2.3378212628496284e-05  2.3377754833709315e-05  2.3375907976876813e-05  2.3372829724141830e-05  2.3368716148335882e-05  2.3363785321528652e-05  2.3358260765571492e-05  2.3352356268459798e-05  2.3346263430167762e-05  2.3340142999925097e-05  2.3334120638862985e-05  2.3328287237220260e-05  2.3322703395196433e-05  2.3317407205312920e-05  2.3312424109908156e-05  2.3307777394256830e-05  2.3303497838389962e-05  2.3299631191629266e-05  2.3296242434264828e-05  2.3293416213381179e-05  2.3291253333745930e-05  2.3289863691656402e-05  2.3289356500467012e-05  2.3289829017153553e-05  2.3291355196156140e-05  2.3293975741041159e-05  2.3297690885390392e-05  2.3302456921400203e-05  2.3308187039473378e-05  2.3314756497306293e-05  2.3322011572356969e-05  2.3329781245631907e-05  2.3337890192992091e-05  2.3346171482222478e-05  2.3354477422188368e-05  2.3362687282410915e-05  2.3370711059797971e-05  2.3378489046331408e-05  2.3385987559920729e-05  2.3393191747540454e-05  2.3400096771794089e-05  2.3406698888595948e-05  2.3412987886409610e-05  2.3418942094580043e-05  2.3424526722776572e-05  2.3429695736313551e-05  2.3434396890601279e-05  2.3438579032496648e-05  2.3442200405929638e-05  2.3445236529531946e-05  2.3447686268995713e-05  2.3449574995504062e-05  2.3450954160192633e-05  2.3451897154493988e-05  2.3452491884813278e-05  2.3452830985013986e-05  2.3453000960583183e-05  2.3453071824162880e-05  2.3453089332983445e-05  2.3493116976106007e-05  2.3493004431330184e-05  2.3492663329547338e-05  2.3492038185981430e-05  2.3491032995406946e-05  2.3489521063674059e-05  2.3487355081084155e-05  2.3484378150021270e-05  2.3480435802273458e-05  2.3475388586970996e-05  2.3469124600177183e-05  2.3461571230354320e-05  2.3452705356930126e-05  2.3442561252403351e-05  2.3431235507740632e-05  2.3418888433996722e-05  2.3405741592384839e-05  2.3392071362695069e-05  2.3378198756377519e-05  2.3364475985303562e-05  2.3351270573024205e-05  2.3338948005051504e-05  2.3327854028891286e-05  2.3318297718733377e-05  2.3310536318414662e-05  2.3304762692707648e-05  2.3301095987324486e-05  2.3299575861683105e-05  2.3300160447353551e-05  2.3302728015673189e-05  2.3307082209387148e-05  2.3312960591387500e-05  2.3320046169868835e-05  2.3327981457962006e-05  2.3336384510161726e-05  2.3344866250712151e-05  2.3353048282519016e-05  2.3360580257392204e-05  2.3367155821007822e-05  2.3372526140332907e-05  2.3376510095156812e-05  2.3379000379436246e-05  2.3379965012759075e-05  2.3379444095366317e-05  2.3377542026781941e-05  2.3374415811276375e-05  2.3370260447793105e-05  2.3365292699431404e-05  2.3359734714304198e-05  2.3353798993754406e-05  2.3347676062098114e-05  2.3341525893012804e-05  2.3335473722411595e-05  2.3329610375702675e-05  2.3323996719983573e-05  2.3318671383160244e-05  2.3313660520263161e-05  2.3308988196370044e-05  2.3304685919993156e-05  2.3300800002937072e-05  2.3297395723323241e-05  2.3294557690126715e-05  2.3292386299192683e-05  2.3290990674067448e-05  2.3290478941135065e-05  2.3290947043960728e-05  2.3292467513535036e-05  2.3295079651216188e-05  2.3298782439464287e-05  2.3303531182150772e-05  2.3309238423089949e-05  2.3315779151053073e-05  2.3322999741093589e-05  2.3330729583141028e-05  2.3338793983921666e-05  2.3347026755741172e-05  2.3355280956775283e-05  2.3363436519521532e-05  2.3371403959300323e-05  2.3379123925849879e-05  2.3386562961763984e-05  2.3393706370253154e-05  2.3400549489564011e-05  2.3407088863134886e-05  2.3413314755851050e-05  2.3419206206130154e-05  2.3424729363745843e-05  2.3429839314213781e-05  2.3434485018235315e-05  2.3438616487743201e-05  2.3442192956006005e-05  2.3445190632506793e-05  2.3447608687294376e-05  2.3449472373407444e-05  2.3450832627215741e-05  2.3451762018207526e-05  2.3452347472013732e-05  2.3452680684442905e-05  2.3452847518044943e-05  2.3452917896711291e-05  2.3452937771625028e-05  2.3490228347092615e-05  2.3490113147323424e-05  2.3489755480901150e-05  2.3489099829912733e-05  2.3488054335517235e-05  2.3486498110094999e-05  2.3484290582447021e-05  2.3481282282376121e-05  2.3477326648200282e-05  2.3472292334203158e-05  2.3466075381958978e-05  2.3458610546855645e-05  2.3449881042899693e-05  2.3439925988589484e-05  2.3428844911228062e-05  2.3416798802716465e-05  2.3404007417299910e-05  2.3390742752419575e-05  2.3377318938420084e-05  2.3364079052272990e-05  2.3351379629702861e-05  2.3339573844453842e-05  2.3328994425809107e-05  2.3319937382935855e-05  2.3312647502254267e-05  2.3307306404410042e-05  2.3304023725226261e-05  2.3302831757721198e-05  2.3303683690108491e-05  2.3306455413207813e-05  2.3310950749021180e-05  2.3316909857129761e-05  2.3324020488975607e-05  2.3331931666691068e-05  2.3340269255319992e-05  2.3348652776866037e-05  2.3356712692145660e-05  2.3364107269138564e-05  2.3370538085601343e-05  2.3375763201037730e-05  2.3379607097607508e-05  2.3381966643283293e-05  2.3382812575333325e-05  2.3382186327116609e-05  2.3380192401766712e-05  2.3376986895811167e-05  2.3372763148527241e-05  2.3367735790265032e-05  2.3362124640826822e-05  2.3356139935101356e-05  2.3349970213879834e-05  2.3343773921772625e-05  2.3337675332382745e-05  2.3331764922928825e-05  2.3326103807572476e-05  2.3320731374898504e-05  2.3315674918193479e-05  2.3310959841087649e-05  2.3306618989801364e-05  2.3302699808528412e-05  2.3299268316656858e-05  2.3296409327471256e-05  2.3294222816393595e-05  2.3292816844487792e-05  2.3292297891332766e-05  2.3292759797743920e-05  2.3294272721450004e-05  2.3296873540936074e-05  2.3300558995405622e-05  2.3305282533448827e-05  2.3310955391939886e-05  2.3317451892523222e-05  2.3324618394316828e-05  2.3332284854427748e-05  2.3340277595122463e-05  2.3348431714403840e-05  2.3356601634712411e-05  2.3364668558408780e-05  2.3372544050393342e-05  2.3380169530785785e-05  2.3387512049008204e-05  2.3394557235480249e-05  2.3401300709034728e-05  2.3407739400288268e-05  2.3413864208087699e-05  2.3419655147291866e-05  2.3425079714081771e-05  2.3430094658326216e-05  2.3434650795056405e-05  2.3438699994732895e-05  2.3442203139520538e-05  2.3445137672561885e-05  2.3447503421437943e-05  2.3449325634800031e-05  2.3450654591108986e-05  2.3451561655655534e-05  2.3452132198936719e-05  2.3452456267942944e-05  2.3452618254502452e-05  2.3452686978764594e-05  2.3452707544792055e-05  2.3486192059261834e-05  2.3486069102113668e-05  2.3485686150191911e-05  2.3484989408460029e-05  2.3483891737807455e-05  2.3482279139718088e-05  2.3480019515746304e-05  2.3476973043140037e-05  2.3473003597744309e-05  2.3467990624566275e-05  2.3461840798034791e-05  2.3454498771010221e-05  2.3445956301495677e-05  2.3436259078932211e-05  2.3425510656005718e-05  2.3413873032124981e-05  2.3401563630359204e-05  2.3388848651383146e-05  2.3376033057017777e-05  2.3363447704992518e-05  2.3351434393481388e-05  2.3340329747467487e-05  2.3330448965110893e-05  2.3322070430314682e-05  2.3315422093492052e-05  2.3310670347989837e-05  2.3307911917382409e-05  2.3307169053823524e-05  2.3308388157720963e-05  2.3311441778447091e-05  2.3316133843733160e-05  2.3322207879458237e-05  2.3329357904638170e-05  2.3337241603479634e-05  2.3345495278975907e-05  2.3353749980879180e-05  2.3361648083702154e-05  2.3368859483560227e-05  2.3375096506955743e-05  2.3380126602590864e-05  2.3383781939397763e-05  2.3385965174213180e-05  2.3386650884583613e-05  2.3385882476579459e-05  2.3383764750496490e-05  2.3380452702184163e-05  2.3376137508427236e-05  2.3371030942055220e-05  2.3365349641390080e-05  2.3359300686661067e-05  2.3353069799295790e-05  2.3346813187194309e-05  2.3340653641299110e-05  2.3334680995654298e-05  2.3328956555953876e-05  2.3323520644305619e-05  2.3318402058170437e-05  2.3313628042423448e-05  2.3309233348601868e-05  2.3305267105714132e-05  2.3301796531894065e-05  2.3298906936831932e-05  2.3296697949514425e-05  2.3295276396106757e-05  2.3294746690788415e-05  2.3295199936359291e-05  2.3296703121238236e-05  2.3299289820077068e-05  2.3302953649557497e-05  2.3307645411805061e-05  2.3313274408632900e-05  2.3319713883298241e-05  2.3326810010371775e-05  2.3334393383236624e-05  2.3342291612788388e-05  2.3350341503698663e-05  2.3358399342892067e-05  2.3366348112601624e-05  2.3374100888374701e-05  2.3381600234197644e-05  2.3388813979190674e-05  2.3395728266467343e-05  2.3402339128725072e-05  2.3408644013471712e-05  2.3414634630698826e-05  2.3420292238229021e-05  2.3425586057353160e-05  2.3430474990713883e-05  2.3434912276588446e-05  2.3438852241081015e-05  2.3442257973410212e-05  2.3445108598826397e-05  2.3447404879125087e-05  2.3449172121159023e-05  2.3450459779010225e-05  2.3451337633095947e-05  2.3451888944663386e-05  2.3452201440995759e-05  2.3452357318316538e-05  2.3452423604233262e-05  2.3452444165008476e-05  2.3481000340663357e-05  2.3480867842494230e-05  2.3480454788589552e-05  2.3479710440900631e-05  2.3478553349824950e-05  2.3476877548818304e-05  2.3474560907785163e-05  2.3471475080371862e-05  2.3467496453338546e-05  2.3462517467767146e-05  2.3456457643017229e-05  2.3449273613005274e-05  2.3440967493627357e-05  2.3431592949432989e-05  2.3421258423816283e-05  2.3410127143174886e-05  2.3398413699138289e-05  2.3386377243996166e-05  2.3374311584660000e-05  2.3362532704812297e-05  2.3351364454724711e-05  2.3341123296340903e-05  2.3332103057493433e-05  2.3324560625556760e-05  2.3318703404331061e-05  2.3314679189482807e-05  2.3312568917677389e-05  2.3312382544393047e-05  2.3314058130401121e-05  2.3317464079752831e-05  2.3322404371920132e-05  2.3328626556163029e-05  2.3335832211230178e-05  2.3343689503305146e-05  2.3351847390261710e-05  2.3359950919030090e-05  2.3367656951769838e-05  2.3374649549935588e-05  2.3380654163598483e-05  2.3385449739970540e-05  2.3388877902256981e-05  2.3390848474105416e-05  2.3391340841971329e-05  2.3390400949855024e-05  2.3388134085174028e-05  2.3384694004242287e-05  2.3380269314269632e-05  2.3375068325830263e-05  2.3369303769710194e-05  2.3363178801827609e-05  2.3356875585560183e-05  2.3350547451100028e-05  2.3344315217751283e-05  2.3338267777304663e-05  2.3332466536125941e-05  2.3326952864261415e-05  2.3321757358909141e-05  2.3316909539647355e-05  2.3312446576366848e-05  2.3308419807942161e-05  2.3304898118612049e-05  2.3301967659984082e-05  2.3299727887105314e-05  2.3298284358798382e-05  2.3297739177998105e-05  2.3298180266739913e-05  2.3299670844344398e-05  2.3302240483377622e-05  2.3305878951322788e-05  2.3310533721302290e-05  2.3316111587339939e-05  2.3322484301672704e-05  2.3329497630432886e-05  2.3336982772164750e-05  2.3344768768307553e-05  2.3352694406152886e-05  2.3360618196347872e-05  2.3368425290172634e-05  2.3376030646191362e-05  2.3383378295313887e-05  2.3390437106491103e-05  2.3397193938898120e-05  2.3403645408586119e-05  2.3409789648830813e-05  2.3415619384270905e-05  2.3421117382204344e-05  2.3426254932560592e-05  2.3430993506201327e-05  2.3435289226809605e-05  2.3439099342698293e-05  2.3442389568166473e-05  2.3445141025273345e-05  2.3447355574283377e-05  2.3449058563086077e-05  2.3450298413845606e-05  2.3451142939395366e-05  2.3451672771367668e-05  2.3451972714685718e-05  2.3452122155774155e-05  2.3452185798600550e-05  2.3452205961092878e-05  2.3474658966508536e-05  2.3474516698320603e-05  2.3474072005777523e-05  2.3473277954687089e-05  2.3472059562405929e-05  2.3470319813811007e-05  2.3467947687615713e-05  2.3464827678862463e-05  2.3460850228248685e-05  2.3455922418709637e-05  2.3449978269662728e-05  2.3442987954956912e-05  2.3434965298887349e-05  2.3425972971684507e-05  2.3416124915606519e-05  2.3405585685572957e-05  2.3394566579483074e-05  2.3383318651972450e-05  2.3372122933965985e-05  2.3361278396495393e-05  2.3351088376233165e-05  2.3341846299474512e-05  2.3333821585077143e-05  2.3327246570211513e-05  2.3322305193699327e-05  2.3319124010169397e-05  2.3317765921706769e-05  2.3318226830336241e-05  2.3320435256568804e-05  2.3324254847394688e-05  2.3329489610632707e-05  2.3335891651213038e-05  2.3343171133879816e-05  2.3351008141238176e-05  2.3359066025392369e-05  2.3367005761669921e-05  2.3374500708316704e-05  2.3381251069282137e-05  2.3386997268323043e-05  2.3391531396107266e-05  2.3394705912232775e-05  2.3396438890150535e-05  2.3396715293372775e-05  2.3395584060083858e-05  2.3393151128281765e-05  2.3389568917955151e-05  2.3385023153057397e-05  2.3379718202943705e-05  2.3373862303872029e-05  2.3367654052473861e-05  2.3361271430719527e-05  2.3354864334898146e-05  2.3348551171312872e-05  2.3342419599083013e-05  2.3336531007208780e-05  2.3330927872672110e-05  2.3325642815596547e-05  2.3320707988223935e-05  2.3316163428159123e-05  2.3312063171768218e-05  2.3308478237809232e-05  2.3305496013329766e-05  2.3303216050376859e-05  2.3301742754601262e-05  2.3301175858531540e-05  2.3301599874112707e-05  2.3303073874683999e-05  2.3305622945554056e-05  2.3309232462482745e-05  2.3313846025729747e-05  2.3319367430178583e-05  2.3325666543015614e-05  2.3332588455610967e-05  2.3339964845932524e-05  2.3347626195899504e-05  2.3355413400839998e-05  2.3363187405362719e-05  2.3370835789952711e-05  2.3378275673579022e-05  2.3385452823730539e-05  2.3392337397432728e-05  2.3398917195344087e-05  2.3405189628628474e-05  2.3411153730184009e-05  2.3416803472222271e-05  2.3422123396045288e-05  2.3427087159685283e-05  2.3431659127905579e-05  2.3435798640607645e-05  2.3439466173126441e-05  2.3442630307079103e-05  2.3445274305001585e-05  2.3447401141685964e-05  2.3449036077980720e-05  2.3450226231662494e-05  2.3451037048504031e-05  2.3451546038072450e-05  2.3451834545728404e-05  2.3451978626335604e-05  2.3452040224918721e-05  2.3452059836838587e-05  2.3467192774234632e-05  2.3467041563698369e-05  2.3466566628773923e-05  2.3465725190273622e-05  2.3464449180428215e-05  2.3462651091499115e-05  2.3460231703587908e-05  2.3457089187714467e-05  2.3453128992938774e-05  2.3448273873850447e-05  2.3442473393885077e-05  2.3435712251957837e-05  2.3428016827614311e-05  2.3419459425563504e-05  2.3410159824462649e-05  2.3400283894388473e-05  2.3390039235509140e-05  2.3379667995166035e-05  2.3369437225415269e-05  2.3359627328418912e-05  2.3350519282609034e-05  2.3342381430701895e-05  2.3335456630256084e-05  2.3329950516862152e-05  2.3326021518362128e-05  2.3323773104476742e-05  2.3323248584313358e-05  2.3324428598891850e-05  2.3327231315852156e-05  2.3331515228272540e-05  2.3337084388195650e-05  2.3343695858912840e-05  2.3351069134415044e-05  2.3358897234926769e-05  2.3366859132042312e-05  2.3374633079364729e-05  2.3381910326482512e-05  2.3388408586666278e-05  2.3393884531586781e-05  2.3398144525327699e-05  2.3401052811807534e-05  2.3402536456407278e-05  2.3402586525342363e-05  2.3401255261086535e-05  2.3398649357716800e-05  2.3394919819240604e-05  2.3390249248291424e-05  2.3384837709523055e-05  2.3378888493887549e-05  2.3372595142488984e-05  2.3366130957780942e-05  2.3359641945002802e-05  2.3353243720364885e-05  2.3347022445491875e-05  2.3341039361888317e-05  2.3335338068401015e-05  2.3329953365105170e-05  2.3324920319709373e-05  2.3320282217742635e-05  2.3316096232844540e-05  2.3312435974000702e-05  2.3309390490265696e-05  2.3307059786299479e-05  2.3305547365136541e-05  2.3304950711700279e-05  2.3305350914050362e-05  2.3306802755003445e-05  2.3309326576911604e-05  2.3312903027619373e-05  2.3317471455549626e-05  2.3322932274618904e-05  2.3329153119525004e-05  2.3335978124131938e-05  2.3343239248188460e-05  2.3350768310781964e-05  2.3358408304844293e-05  2.3366022681301915e-05  2.3373501589354746e-05  2.3380764497337129e-05  2.3387759131117821e-05  2.3394457177174149e-05  2.3400847629658919e-05  2.3406928952487564e-05  2.3412701338854256e-05  2.3418160269865056e-05  2.3423292318326421e-05  2.3428073755733773e-05  2.3432472061040806e-05  2.3436449968536156e-05  2.3439971297200486e-05  2.3443007531943899e-05  2.3445544015498607e-05  2.3447584671611216e-05  2.3449154403176587e-05  2.3450298657639500e-05  2.3451080073545989e-05  2.3451572554395964e-05  2.3451853496523876e-05  2.3451995172792500e-05  2.3452056405642887e-05  2.3452075635049529e-05  2.3458651627246060e-05  2.3458493129053943e-05  2.3457991972877181e-05  2.3457109604937064e-05  2.3455784977084464e-05  2.3453940231711648e-05  2.3451488149549685e-05  2.3448340845952733e-05  2.3444419114493309e-05  2.3439661769151753e-05  2.3434034327494548e-05  2.3427536406884738e-05  2.3420207273713302e-05  2.3412129090561705e-05  2.3403427544776275e-05  2.3394269708029842e-05  2.3384859160642514e-05  2.3375428604007116e-05  2.3366230364055349e-05  2.3357525341703573e-05  2.3349571076860784e-05  2.3342609648474296e