<?xml version="1.0"?>
<VTKFile type="UnstructuredGrid"  version="0.1"  >
<UnstructuredGrid>
<Piece  NumberOfPoints="10201" NumberOfCells="20000">
<Points>
<DataArray  type="Float64"  NumberOfComponents="3"  format="ascii">0 0 0  0.25 0 0  0.5 0 0  0.75 0 0  1 0 0  1.25 0 0  1.5 0 0  1.75 0 0  2 0 0  2.25 0 0  2.5 0 0  2.75 0 0  3 0 0  3.25 0 0  3.5 0 0  3.75 0 0  4 0 0  4.25 0 0  4.5 0 0  4.75 0 0  5 0 0  5.25 0 0  5.5 0 0  5.75 0 0  6 0 0  6.25 0 0  6.5 0 0  6.75 0 0  7 0 0  7.25 0 0  7.5 0 0  7.75 0 0  8 0 0  8.25 0 0  8.5 0 0  8.75 0 0  9 0 0  9.25 0 0  9.5 0 0  9.75 0 0  10 0 0  10.25 0 0  10.5 0 0  10.75 0 0  11 0 0  11.25 0 0  11.5 0 0  11.75 0 0  12 0 0  12.25 0 0  12.5 0 0  12.75 0 0  13 0 0  13.25 0 0  13.5 0 0  13.75 0 0  14 0 0  14.25 0 0  14.5 0 0  14.75 0 0  15 0 0  15.25 0 0  15.5 0 0  15.75 0 0  16 0 0  16.25 0 0  16.5 0 0  16.75 0 0  17 0 0  17.25 0 0  17.5 0 0  17.75 0 0  18 0 0  18.25 0 0  18.5 0 0  18.75 0 0  19 0 0  19.25 0 0  19.5 0 0  19.75 0 0  20 0 0  20.25 0 0  20.5 0 0  20.75 0 0  21 0 0  21.25 0 0  21.5 0 0  21.75 0 0  22 0 0  22.25 0 0  22.5 0 0  22.75 0 0  23 0 0  23.25 0 0  23.5 0 0  23.75 0 0  24 0 0  24.25 0 0  24.5 0 0  24.75 0 0  25 0 0  0 0.25 0  0.25 0.25 0  0.5 0.25 0  0.75 0.25 0  1 0.25 0  1.25 0.25 0  1.5 0.25 0  1.75 0.25 0  2 0.25 0  2.25 0.25 0  2.5 0.25 0  2.75 0.25 0  3 0.25 0  3.25 0.25 0  3.5 0.25 0  3.75 0.25 0  4 0.25 0  4.25 0.25 0  4.5 0.25 0  4.75 0.25 0  5 0.25 0  5.25 0.25 0  5.5 0.25 0  5.75 0.25 0  6 0.25 0  6.25 0.25 0  6.5 0.25 0  6.75 0.25 0  7 0.25 0  7.25 0.25 0  7.5 0.25 0  7.75 0.25 0  8 0.25 0  8.25 0.25 0  8.5 0.25 0  8.75 0.25 0  9 0.25 0  9.25 0.25 0  9.5 0.25 0  9.75 0.25 0  10 0.25 0  10.25 0.25 0  10.5 0.25 0  10.75 0.25 0  11 0.25 0  11.25 0.25 0  11.5 0.25 0  11.75 0.25 0  12 0.25 0  12.25 0.25 0  12.5 0.25 0  12.75 0.25 0  13 0.25 0  13.25 0.25 0  13.5 0.25 0  13.75 0.25 0  14 0.25 0  14.25 0.25 0  14.5 0.25 0  14.75 0.25 0  15 0.25 0  15.25 0.25 0  15.5 0.25 0  15.75 0.25 0  16 0.25 0  16.25 0.25 0  16.5 0.25 0  16.75 0.25 0  17 0.25 0  17.25 0.25 0  17.5 0.25 0  17.75 0.25 0  18 0.25 0  18.25 0.25 0  18.5 0.25 0  18.75 0.25 0  19 0.25 0  19.25 0.25 0  19.5 0.25 0  19.75 0.25 0  20 0.25 0  20.25 0.25 0  20.5 0.25 0  20.75 0.25 0  21 0.25 0  21.25 0.25 0  21.5 0.25 0  21.75 0.25 0  22 0.25 0  22.25 0.25 0  22.5 0.25 0  22.75 0.25 0  23 0.25 0  23.25 0.25 0  23.5 0.25 0  23.75 0.25 0  24 0.25 0  24.25 0.25 0  24.5 0.25 0  24.75 0.25 0  25 0.25 0  0 0.5 0  0.25 0.5 0  0.5 0.5 0  0.75 0.5 0  1 0.5 0  1.25 0.5 0  1.5 0.5 0  1.75 0.5 0  2 0.5 0  2.25 0.5 0  2.5 0.5 0  2.75 0.5 0  3 0.5 0  3.25 0.5 0  3.5 0.5 0  3.75 0.5 0  4 0.5 0  4.25 0.5 0  4.5 0.5 0  4.75 0.5 0  5 0.5 0  5.25 0.5 0  5.5 0.5 0  5.75 0.5 0  6 0.5 0  6.25 0.5 0  6.5 0.5 0  6.75 0.5 0  7 0.5 0  7.25 0.5 0  7.5 0.5 0  7.75 0.5 0  8 0.5 0  8.25 0.5 0  8.5 0.5 0  8.75 0.5 0  9 0.5 0  9.25 0.5 0  9.5 0.5 0  9.75 0.5 0  10 0.5 0  10.25 0.5 0  10.5 0.5 0  10.75 0.5 0  11 0.5 0  11.25 0.5 0  11.5 0.5 0  11.75 0.5 0  12 0.5 0  12.25 0.5 0  12.5 0.5 0  12.75 0.5 0  13 0.5 0  13.25 0.5 0  13.5 0.5 0  13.75 0.5 0  14 0.5 0  14.25 0.5 0  14.5 0.5 0  14.75 0.5 0  15 0.5 0  15.25 0.5 0  15.5 0.5 0  15.75 0.5 0  16 0.5 0  16.25 0.5 0  16.5 0.5 0  16.75 0.5 0  17 0.5 0  17.25 0.5 0  17.5 0.5 0  17.75 0.5 0  18 0.5 0  18.25 0.5 0  18.5 0.5 0  18.75 0.5 0  19 0.5 0  19.25 0.5 0  19.5 0.5 0  19.75 0.5 0  20 0.5 0  20.25 0.5 0  20.5 0.5 0  20.75 0.5 0  21 0.5 0  21.25 0.5 0  21.5 0.5 0  21.75 0.5 0  22 0.5 0  22.25 0.5 0  22.5 0.5 0  22.75 0.5 0  23 0.5 0  23.25 0.5 0  23.5 0.5 0  23.75 0.5 0  24 0.5 0  24.25 0.5 0  24.5 0.5 0  24.75 0.5 0  25 0.5 0  0 0.75 0  0.25 0.75 0  0.5 0.75 0  0.75 0.75 0  1 0.75 0  1.25 0.75 0  1.5 0.75 0  1.75 0.75 0  2 0.75 0  2.25 0.75 0  2.5 0.75 0  2.75 0.75 0  3 0.75 0  3.25 0.75 0  3.5 0.75 0  3.75 0.75 0  4 0.75 0  4.25 0.75 0  4.5 0.75 0  4.75 0.75 0  5 0.75 0  5.25 0.75 0  5.5 0.75 0  5.75 0.75 0  6 0.75 0  6.25 0.75 0  6.5 0.75 0  6.75 0.75 0  7 0.75 0  7.25 0.75 0  7.5 0.75 0  7.75 0.75 0  8 0.75 0  8.25 0.75 0  8.5 0.75 0  8.75 0.75 0  9 0.75 0  9.25 0.75 0  9.5 0.75 0  9.75 0.75 0  10 0.75 0  10.25 0.75 0  10.5 0.75 0  10.75 0.75 0  11 0.75 0  11.25 0.75 0  11.5 0.75 0  11.75 0.75 0  12 0.75 0  12.25 0.75 0  12.5 0.75 0  12.75 0.75 0  13 0.75 0  13.25 0.75 0  13.5 0.75 0  13.75 0.75 0  14 0.75 0  14.25 0.75 0  14.5 0.75 0  14.75 0.75 0  15 0.75 0  15.25 0.75 0  15.5 0.75 0  15.75 0.75 0  16 0.75 0  16.25 0.75 0  16.5 0.75 0  16.75 0.75 0  17 0.75 0  17.25 0.75 0  17.5 0.75 0  17.75 0.75 0  18 0.75 0  18.25 0.75 0  18.5 0.75 0  18.75 0.75 0  19 0.75 0  19.25 0.75 0  19.5 0.75 0  19.75 0.75 0  20 0.75 0  20.25 0.75 0  20.5 0.75 0  20.75 0.75 0  21 0.75 0  21.25 0.75 0  21.5 0.75 0  21.75 0.75 0  22 0.75 0  22.25 0.75 0  22.5 0.75 0  22.75 0.75 0  23 0.75 0  23.25 0.75 0  23.5 0.75 0  23.75 0.75 0  24 0.75 0  24.25 0.75 0  24.5 0.75 0  24.75 0.75 0  25 0.75 0  0 1 0  0.25 1 0  0.5 1 0  0.75 1 0  1 1 0  1.25 1 0  1.5 1 0  1.75 1 0  2 1 0  2.25 1 0  2.5 1 0  2.75 1 0  3 1 0  3.25 1 0  3.5 1 0  3.75 1 0  4 1 0  4.25 1 0  4.5 1 0  4.75 1 0  5 1 0  5.25 1 0  5.5 1 0  5.75 1 0  6 1 0  6.25 1 0  6.5 1 0  6.75 1 0  7 1 0  7.25 1 0  7.5 1 0  7.75 1 0  8 1 0  8.25 1 0  8.5 1 0  8.75 1 0  9 1 0  9.25 1 0  9.5 1 0  9.75 1 0  10 1 0  10.25 1 0  10.5 1 0  10.75 1 0  11 1 0  11.25 1 0  11.5 1 0  11.75 1 0  12 1 0  12.25 1 0  12.5 1 0  12.75 1 0  13 1 0  13.25 1 0  13.5 1 0  13.75 1 0  14 1 0  14.25 1 0  14.5 1 0  14.75 1 0  15 1 0  15.25 1 0  15.5 1 0  15.75 1 0  16 1 0  16.25 1 0  16.5 1 0  16.75 1 0  17 1 0  17.25 1 0  17.5 1 0  17.75 1 0  18 1 0  18.25 1 0  18.5 1 0  18.75 1 0  19 1 0  19.25 1 0  19.5 1 0  19.75 1 0  20 1 0  20.25 1 0  20.5 1 0  20.75 1 0  21 1 0  21.25 1 0  21.5 1 0  21.75 1 0  22 1 0  22.25 1 0  22.5 1 0  22.75 1 0  23 1 0  23.25 1 0  23.5 1 0  23.75 1 0  24 1 0  24.25 1 0  24.5 1 0  24.75 1 0  25 1 0  0 1.25 0  0.25 1.25 0  0.5 1.25 0  0.75 1.25 0  1 1.25 0  1.25 1.25 0  1.5 1.25 0  1.75 1.25 0  2 1.25 0  2.25 1.25 0  2.5 1.25 0  2.75 1.25 0  3 1.25 0  3.25 1.25 0  3.5 1.25 0  3.75 1.25 0  4 1.25 0  4.25 1.25 0  4.5 1.25 0  4.75 1.25 0  5 1.25 0  5.25 1.25 0  5.5 1.25 0  5.75 1.25 0  6 1.25 0  6.25 1.25 0  6.5 1.25 0  6.75 1.25 0  7 1.25 0  7.25 1.25 0  7.5 1.25 0  7.75 1.25 0  8 1.25 0  8.25 1.25 0  8.5 1.25 0  8.75 1.25 0  9 1.25 0  9.25 1.25 0  9.5 1.25 0  9.75 1.25 0  10 1.25 0  10.25 1.25 0  10.5 1.25 0  10.75 1.25 0  11 1.25 0  11.25 1.25 0  11.5 1.25 0  11.75 1.25 0  12 1.25 0  12.25 1.25 0  12.5 1.25 0  12.75 1.25 0  13 1.25 0  13.25 1.25 0  13.5 1.25 0  13.75 1.25 0  14 1.25 0  14.25 1.25 0  14.5 1.25 0  14.75 1.25 0  15 1.25 0  15.25 1.25 0  15.5 1.25 0  15.75 1.25 0  16 1.25 0  16.25 1.25 0  16.5 1.25 0  16.75 1.25 0  17 1.25 0  17.25 1.25 0  17.5 1.25 0  17.75 1.25 0  18 1.25 0  18.25 1.25 0  18.5 1.25 0  18.75 1.25 0  19 1.25 0  19.25 1.25 0  19.5 1.25 0  19.75 1.25 0  20 1.25 0  20.25 1.25 0  20.5 1.25 0  20.75 1.25 0  21 1.25 0  21.25 1.25 0  21.5 1.25 0  21.75 1.25 0  22 1.25 0  22.25 1.25 0  22.5 1.25 0  22.75 1.25 0  23 1.25 0  23.25 1.25 0  23.5 1.25 0  23.75 1.25 0  24 1.25 0  24.25 1.25 0  24.5 1.25 0  24.75 1.25 0  25 1.25 0  0 1.5 0  0.25 1.5 0  0.5 1.5 0  0.75 1.5 0  1 1.5 0  1.25 1.5 0  1.5 1.5 0  1.75 1.5 0  2 1.5 0  2.25 1.5 0  2.5 1.5 0  2.75 1.5 0  3 1.5 0  3.25 1.5 0  3.5 1.5 0  3.75 1.5 0  4 1.5 0  4.25 1.5 0  4.5 1.5 0  4.75 1.5 0  5 1.5 0  5.25 1.5 0  5.5 1.5 0  5.75 1.5 0  6 1.5 0  6.25 1.5 0  6.5 1.5 0  6.75 1.5 0  7 1.5 0  7.25 1.5 0  7.5 1.5 0  7.75 1.5 0  8 1.5 0  8.25 1.5 0  8.5 1.5 0  8.75 1.5 0  9 1.5 0  9.25 1.5 0  9.5 1.5 0  9.75 1.5 0  10 1.5 0  10.25 1.5 0  10.5 1.5 0  10.75 1.5 0  11 1.5 0  11.25 1.5 0  11.5 1.5 0  11.75 1.5 0  12 1.5 0  12.25 1.5 0  12.5 1.5 0  12.75 1.5 0  13 1.5 0  13.25 1.5 0  13.5 1.5 0  13.75 1.5 0  14 1.5 0  14.25 1.5 0  14.5 1.5 0  14.75 1.5 0  15 1.5 0  15.25 1.5 0  15.5 1.5 0  15.75 1.5 0  16 1.5 0  16.25 1.5 0  16.5 1.5 0  16.75 1.5 0  17 1.5 0  17.25 1.5 0  17.5 1.5 0  17.75 1.5 0  18 1.5 0  18.25 1.5 0  18.5 1.5 0  18.75 1.5 0  19 1.5 0  19.25 1.5 0  19.5 1.5 0  19.75 1.5 0  20 1.5 0  20.25 1.5 0  20.5 1.5 0  20.75 1.5 0  21 1.5 0  21.25 1.5 0  21.5 1.5 0  21.75 1.5 0  22 1.5 0  22.25 1.5 0  22.5 1.5 0  22.75 1.5 0  23 1.5 0  23.25 1.5 0  23.5 1.5 0  23.75 1.5 0  24 1.5 0  24.25 1.5 0  24.5 1.5 0  24.75 1.5 0  25 1.5 0  0 1.75 0  0.25 1.75 0  0.5 1.75 0  0.75 1.75 0  1 1.75 0  1.25 1.75 0  1.5 1.75 0  1.75 1.75 0  2 1.75 0  2.25 1.75 0  2.5 1.75 0  2.75 1.75 0  3 1.75 0  3.25 1.75 0  3.5 1.75 0  3.75 1.75 0  4 1.75 0  4.25 1.75 0  4.5 1.75 0  4.75 1.75 0  5 1.75 0  5.25 1.75 0  5.5 1.75 0  5.75 1.75 0  6 1.75 0  6.25 1.75 0  6.5 1.75 0  6.75 1.75 0  7 1.75 0  7.25 1.75 0  7.5 1.75 0  7.75 1.75 0  8 1.75 0  8.25 1.75 0  8.5 1.75 0  8.75 1.75 0  9 1.75 0  9.25 1.75 0  9.5 1.75 0  9.75 1.75 0  10 1.75 0  10.25 1.75 0  10.5 1.75 0  10.75 1.75 0  11 1.75 0  11.25 1.75 0  11.5 1.75 0  11.75 1.75 0  12 1.75 0  12.25 1.75 0  12.5 1.75 0  12.75 1.75 0  13 1.75 0  13.25 1.75 0  13.5 1.75 0  13.75 1.75 0  14 1.75 0  14.25 1.75 0  14.5 1.75 0  14.75 1.75 0  15 1.75 0  15.25 1.75 0  15.5 1.75 0  15.75 1.75 0  16 1.75 0  16.25 1.75 0  16.5 1.75 0  16.75 1.75 0  17 1.75 0  17.25 1.75 0  17.5 1.75 0  17.75 1.75 0  18 1.75 0  18.25 1.75 0  18.5 1.75 0  18.75 1.75 0  19 1.75 0  19.25 1.75 0  19.5 1.75 0  19.75 1.75 0  20 1.75 0  20.25 1.75 0  20.5 1.75 0  20.75 1.75 0  21 1.75 0  21.25 1.75 0  21.5 1.75 0  21.75 1.75 0  22 1.75 0  22.25 1.75 0  22.5 1.75 0  22.75 1.75 0  23 1.75 0  23.25 1.75 0  23.5 1.75 0  23.75 1.75 0  24 1.75 0  24.25 1.75 0  24.5 1.75 0  24.75 1.75 0  25 1.75 0  0 2 0  0.25 2 0  0.5 2 0  0.75 2 0  1 2 0  1.25 2 0  1.5 2 0  1.75 2 0  2 2 0  2.25 2 0  2.5 2 0  2.75 2 0  3 2 0  3.25 2 0  3.5 2 0  3.75 2 0  4 2 0  4.25 2 0  4.5 2 0  4.75 2 0  5 2 0  5.25 2 0  5.5 2 0  5.75 2 0  6 2 0  6.25 2 0  6.5 2 0  6.75 2 0  7 2 0  7.25 2 0  7.5 2 0  7.75 2 0  8 2 0  8.25 2 0  8.5 2 0  8.75 2 0  9 2 0  9.25 2 0  9.5 2 0  9.75 2 0  10 2 0  10.25 2 0  10.5 2 0  10.75 2 0  11 2 0  11.25 2 0 
[...]
<PointData  Scalars="f_26"> 
<DataArray  type="Float64"  Name="f_26"  format="ascii">2.3324729143878903e-05  2.3333728666230620e-05  2.3354709707683606e-05  2.3387251448119174e-05  2.3429777253432462e-05  2.3480138720211661e-05  2.3535931036419592e-05  2.3594736507876840e-05  2.3654319710896575e-05  2.3712767324371204e-05  2.3768567743337528e-05  2.3820634122988188e-05  2.3868281885640815e-05  2.3911175514551710e-05  2.3949259563637996e-05  2.3982686303602929e-05  2.4011748705800121e-05  2.4036823712519866e-05  2.4058327670646800e-05  2.4076683680385886e-05  2.4092299387159191e-05  2.4105553224106114e-05  2.4116787060186309e-05  2.4126303420283465e-05  2.4134365769505219e-05  2.4141200699284643e-05  2.4147001166397604e-05  2.4151930195697706e-05  2.4156124659148164e-05  2.4159698892802250e-05  2.4162748018760543e-05  2.4165350910480493e-05  2.4167572785885807e-05  2.4169467440752326e-05  2.4171079150461009e-05  2.4172444275596419e-05  2.4173592609040064e-05  2.4174548501256200e-05  2.4175331797805002e-05  2.4175958619665369e-05  2.4176442013281991e-05  2.4176792493707174e-05  2.4177018500967271e-05  2.4177126786921611e-05  2.4177122747407686e-05  2.4177010712346557e-05  2.4176794204657664e-05  2.4176476177227911e-05  2.4176059235712157e-05  2.4175545853524346e-05  2.4174938583923929e-05  2.4174240272531698e-05  2.4173454271855766e-05  2.4172584657427870e-05  2.4171636442930292e-05  2.4170615789266845e-05  2.4169530199985629e-05  2.4168388692950330e-05  2.4167201935902611e-05  2.4165982331846492e-05  2.4164744039347174e-05  2.4163502913215144e-05  2.4162276352948697e-05  2.4161083049944852e-05  2.4159942629908988e-05  2.4158875193924370e-05  2.4157900769852570e-05  2.4157038694430976e-05  2.4156306954704710e-05  2.4155721524246828e-05  2.4155295733972594e-05  2.4155039718413720e-05  2.4154959975602289e-05  2.4155059072198012e-05  2.4155335515663827e-05  2.4155783803112724e-05  2.4156394643219539e-05  2.4157155334776691e-05  2.4158050274467736e-05  2.4159061558358830e-05  2.4160169637159621e-05  2.4161353984675852e-05  2.4162593741775428e-05  2.4163868303935222e-05  2.4165157828096597e-05  2.4166443643115871e-05  2.4167708556595529e-05  2.4168937058541889e-05  2.4170115428571843e-05  2.4171231757997636e-05  2.4172275900995401e-05  2.4173239370326099e-05  2.4174115192941146e-05  2.4174897739480376e-05  2.4175582539194212e-05  2.4176166087618959e-05  2.4176645645717005e-05  2.4177019005370661e-05  2.4177284111932201e-05  2.4177438087923088e-05  2.4177473635181547e-05  2.3333237964448092e-05  2.3340495323756268e-05  2.3360811507219299e-05  2.3392874877819146e-05  2.3434926675161058e-05  2.3484792189617609e-05  2.3540076169283752e-05  2.3598377467332392e-05  2.3657476140829808e-05  2.3715470828441982e-05  2.3770857846342679e-05  2.3822554543757082e-05  2.3869877477882654e-05  2.3912489975711565e-05  2.3950333869828342e-05  2.3983557760701744e-05  2.4012450485244034e-05  2.4037384744564550e-05  2.4058772784226688e-05  2.4077033899225220e-05  2.4092572312320123e-05  2.4105763451720727e-05  2.4116946598853573e-05  2.4126422085272257e-05  2.4134451540598490e-05  2.4141260036147693e-05  2.4147039280187495e-05  2.4151951278715671e-05  2.4156132076112048e-05  2.4159695338162646e-05  2.4162735644709625e-05  2.4165331430140649e-05  2.4167547555784708e-05  2.4169437526207825e-05  2.4171045376987903e-05  2.4172407268953406e-05  2.4173552826084037e-05  2.4174506253374372e-05  2.4175287268356717e-05  2.4175911876583941e-05  2.4176393017758861e-05  2.4176741105702255e-05  2.4176964482155955e-05  2.4177069801597091e-05  2.4177062361803566e-05  2.4176946392826713e-05  2.4176725315235173e-05  2.4176401976919978e-05  2.4175978876309611e-05  2.4175458378447119e-05  2.4174842928940636e-05  2.4174135269230800e-05  2.4173338654853472e-05  2.4172457076364687e-05  2.4171495480320844e-05  2.4170459985199904e-05  2.4169358084495570e-05  2.4168198826572448e-05  2.4166992958464542e-05  2.4165753018931122e-05  2.4164493365103211e-05  2.4163230117328515e-05  2.4161981008688747e-05  2.4160765129359090e-05  2.4159602561575878e-05  2.4158513908311971e-05  2.4157519727389210e-05  2.4156639891958726e-05  2.4155892907089177e-05  2.4155295219517979e-05  2.4154860562351427e-05  2.4154599377745928e-05  2.4154518357827944e-05  2.4154620137274841e-05  2.4154903160594668e-05  2.4155361734235697e-05  2.4155986259629438e-05  2.4156763629695793e-05  2.4157677759715073e-05  2.4158710214998128e-05  2.4159840893197193e-05  2.4161048718586671e-05  2.4162312308873441e-05  2.4163610581319922e-05  2.4164923273169168e-05  2.4166231360455356e-05  2.4167517368247481e-05  2.4168765573387379e-05  2.4169962107285715e-05  2.4171094971048044e-05  2.4172153978079983e-05  2.4173130640515648e-05  2.4174018015590318e-05  2.4174810526734254e-05  2.4175503771954726e-05  2.4176094329164763e-05  2.4176579564794550e-05  2.4176957450535447e-05  2.4177226409226754e-05  2.4177385340976205e-05  2.4177434776732624e-05  2.3352830939419203e-05  2.3359427086617141e-05  2.3378843204531438e-05  2.3409824325574704e-05  2.3450613513008856e-05  2.3499071624224113e-05  2.3552860267199132e-05  2.3609640543312206e-05  2.3667249831017967e-05  2.3723833404449950e-05  2.3777921086856367e-05  2.3828450555166526e-05  2.3874747041893273e-05  2.3916473267428800e-05  2.3953563790729884e-05  2.3986155712787642e-05  2.4014524177674157e-05  2.4039027539035076e-05  2.4060064101943331e-05  2.4078040284387865e-05  2.4093348839312387e-05  2.4106355253401911e-05  2.4117390370096606e-05  2.4126747475353290e-05  2.4134682390798419e-05  2.4141415447614307e-05  2.4147134514964093e-05  2.4151998506908185e-05  2.4156140986954791e-05  2.4159673634165173e-05  2.4162689437492312e-05  2.4165265554923784e-05  2.4167465819384917e-05  2.4169342901182006e-05  2.4170940152455944e-05  2.4172293166731344e-05  2.4173431089110766e-05  2.4174377712021883e-05  2.4175152389062477e-05  2.4175770796310854e-05  2.4176245567049175e-05  2.4176586822522968e-05  2.4176802618314967e-05  2.4176899323225343e-05  2.4176881945235708e-05  2.4176754417161649e-05  2.4176519852909618e-05  2.4176180783774093e-05  2.4175739382853420e-05  2.4175197684334310e-05  2.4174557802999970e-05  2.4173822157762779e-05  2.4172993701226110e-05  2.4172076155179244e-05  2.4171074249493861e-05  2.4169993959138857e-05  2.4168842731044229e-05  2.4167629689485817e-05  2.4166365805780861e-05  2.4165064015716773e-05  2.4163739266692708e-05  2.4162408476481409e-05  2.4161090387244172e-05  2.4159805302283235e-05  2.4158574699136717e-05  2.4157420720882811e-05  2.4156365557457250e-05  2.4155430739580907e-05  2.4154636378409661e-05  2.4154000392926427e-05  2.4153537773050592e-05  2.4153259928305819e-05  2.4153174168958360e-05  2.4153283358717364e-05  2.4153585765965549e-05  2.4154075125299017e-05  2.4154740904609711e-05  2.4155568756968665e-05  2.4156541122991339e-05  2.4157637939636635e-05  2.4158837406366944e-05  2.4160116759457072e-05  2.4161453009520126e-05  2.4162823605049917e-05  2.4164206994698350e-05  2.4165583071776005e-05  2.4166933494873691e-05  2.4168241887607173e-05  2.4169493927677271e-05  2.4170677340446478e-05  2.4171781815089382e-05  2.4172798862327199e-05  2.4173721632195701e-05  2.4174544708682574e-05  2.4175263895928999e-05  2.4175876008732660e-05  2.4176378679738354e-05  2.4176770200731016e-05  2.4177049436117698e-05  2.4177215904336746e-05  2.4177270204993399e-05  2.3383273716779974e-05  2.3389392796915873e-05  2.3407723958279726e-05  2.3437144706032370e-05  2.3475994685698443e-05  2.3522236387446902e-05  2.3573641034103504e-05  2.3627978195748394e-05  2.3683182620327386e-05  2.3737478724575196e-05  2.3789453785632025e-05  2.3838081126294540e-05  2.3882702173778577e-05  2.3922980185326682e-05  2.3958838879392244e-05  2.3990397200748846e-05  2.4017908244855603e-05  2.4041707041048297e-05  2.4062169114421557e-05  2.4079679782249399e-05  2.4094612977720157e-05  2.4107317869121149e-05  2.4118111452692488e-05  2.4127275459511447e-05  2.4135056194405935e-05  2.4141666229425335e-05  2.4147287156213244e-05  2.4152072838379305e-05  2.4156152791115755e-05  2.4159635454348094e-05  2.4162611225090063e-05  2.4165155182777781e-05  2.4167329485974255e-05  2.4169185446505379e-05  2.4170765302969831e-05  2.4172103723541551e-05  2.4173229070874239e-05  2.4174164461706737e-05  2.4174928651809042e-05  2.4175536774095910e-05  2.4176000954636581e-05  2.4176330828247698e-05  2.4176533972560877e-05  2.4176616276993257e-05  2.4176582260937694e-05  2.4176435353704184e-05  2.4176178147230519e-05  2.4175812631263338e-05  2.4175340419500529e-05  2.4174762973981858e-05  2.4174081833708337e-05  2.4173298851952707e-05  2.4172416444888263e-05  2.4171437851923331e-05  2.4170367405428025e-05  2.4169210804374010e-05  2.4167975382847113e-05  2.4166670360602842e-05  2.4165307059098108e-05  2.4163899063151227e-05  2.4162462306070711e-05  2.4161015055338447e-05  2.4159577777327118e-05  2.4158172863576065e-05  2.4156824208130623e-05  2.4155556635316651e-05  2.4154395189581562e-05  2.4153364312703967e-05  2.4152486947320863e-05  2.4151783617595799e-05  2.4151271546131575e-05  2.4150963869328520e-05  2.4150869010270384e-05  2.4150990258664583e-05  2.4151325592094596e-05  2.4151867753479227e-05  2.4152604578463842e-05  2.4153519546077845e-05  2.4154592508831244e-05  2.4155800546403228e-05  2.4157118881286108e-05  2.4158521795338774e-05  2.4159983492452798e-05  2.4161478863060232e-05  2.4162984119275780e-05  2.4164477283282508e-05  2.4165938524577346e-05  2.4167350352725077e-05  2.4168697680639301e-05  2.4169967778886921e-05  2.4171150144252848e-05  2.4172236306226247e-05  2.4173219593757366e-05  2.4174094882231493e-05  2.4174858337792043e-05  2.4175507173671819e-05  2.4176039432024788e-05  2.4176453806136194e-05  2.4176749522196506e-05  2.4176926298870470e-05  2.4176984348561524e-05  2.3423255388707563e-05  2.3428896330665661e-05  2.3445953537500376e-05  2.3473424227375068e-05  2.3509782057256551e-05  2.3553136582830762e-05  2.3601412412925987e-05  2.3652527507525281e-05  2.3704548659384590e-05  2.3755807615216001e-05  2.3804970085588384e-05  2.3851058818114353e-05  2.3893438688331815e-05  2.3931775348228863e-05  2.3965979468036085e-05  2.3996146875731678e-05  2.4022502053134388e-05  2.4045349446955579e-05  2.4065034510889657e-05  2.4081914570468066e-05  2.4096338498200431e-05  2.4108633666316020e-05  2.4119098529150087e-05  2.4127999312422337e-05  2.4135569526944975e-05  2.4142011296661476e-05  2.4147497747642939e-05  2.4152175923237521e-05  2.4156169864340710e-05  2.4159583624880822e-05  2.4162504087280137e-05  2.4165003508218760e-05  2.4167141768510489e-05  2.4168968328290805e-05  2.4170523904803841e-05  2.4171841898502010e-05  2.4172949596612015e-05  2.4173869183673390e-05  2.4174618587129547e-05  2.4175212183721912e-05  2.4175661389769098e-05  2.4175975155751485e-05  2.4176160383163968e-05  2.4176222279441666e-05  2.4176164664933012e-05  2.4175990244373799e-05  2.4175700854053810e-05  2.4175297694790573e-05  2.4174781559837467e-05  2.4174153065845283e-05  2.4173412893840687e-05  2.4172562045746649e-05  2.4171602120109180e-05  2.4170535608284044e-05  2.4169366209276416e-05  2.4168099157671870e-05  2.4166741554691020e-05  2.4165302687506973e-05  2.4163794316903395e-05  2.4162230908614695e-05  2.4160629779946010e-05  2.4159011131323443e-05  2.4157397933134482e-05  2.4155815642370689e-05  2.4154291731720384e-05  2.4152855025983905e-05  2.4151534856497070e-05  2.4150360062441824e-05  2.4149357886596503e-05  2.4148552829812947e-05  2.4147965540695006e-05  2.4147611822242742e-05  2.4147501834011599e-05  2.4147639556159233e-05  2.4148022561527509e-05  2.4148642115869495e-05  2.4149483597714007e-05  2.4150527201844366e-05  2.4151748867434650e-05  2.4153121356216106e-05  2.4154615399099355e-05  2.4156200831541952e-05  2.4157847647461674e-05  2.4159526916577902e-05  2.4161211528189734e-05  2.4162876743055970e-05  2.4164500552106072e-05  2.4166063854684109e-05  2.4167550479116464e-05  2.4168947074455284e-05  2.4170242904651973e-05  2.4171429575857680e-05  2.4172500724889925e-05  2.4173451693024940e-05  2.4174279204983128e-05  2.4174981068953452e-05  2.4175555910221500e-05  2.4176002948336396e-05  2.4176321823942394e-05  2.4176512469898982e-05  2.4176574988010455e-05  2.3470932688494529e-05  2.3476066391255632e-05  2.3491691277649648e-05  2.3516916033986024e-05  2.3550365185896273e-05  2.3590323345705631e-05  2.3634899443317445e-05  2.3682189719668240e-05  2.3730419670467877e-05  2.3778050479352630e-05  2.3823843180087893e-05  2.3866881539088683e-05  2.3906560587450200e-05  2.3942550937774327e-05  2.3974749550360189e-05  2.4003226181017936e-05  2.4028172295752238e-05  2.4049856608625486e-05  2.4068589134266942e-05  2.4084693990181293e-05  2.4098490154880753e-05  2.4110278878396804e-05  2.4120336300764552e-05  2.4128909918342022e-05  2.4136217735366762e-05  2.4142449172945298e-05  2.4147767034626645e-05  2.4152310024400491e-05  2.4156195471635914e-05  2.4159522038797455e-05  2.4162372276490508e-05  2.4164814952658340e-05  2.4166907124674718e-05  2.4168695949981377e-05  2.4170220247142776e-05  2.4171511828080921e-05  2.4172596626298989e-05  2.4173495646895878e-05  2.4174225763365436e-05  2.4174800384412887e-05  2.4175230011863358e-05  2.4175522708533180e-05  2.4175684492889061e-05  2.4175719675540758e-05  2.4175631151137516e-05  2.4175420658059209e-05  2.4175089017365014e-05  2.4174636361712517e-05  2.4174062364289123e-05  2.4173366477080298e-05  2.4172548186885965e-05  2.4171607296215018e-05  2.4170544234350979e-05  2.4169360401300348e-05  2.4168058543841592e-05  2.4166643158375230e-05  2.4165120909722687e-05  2.4163501048576245e-05  2.4161795803315713e-05  2.4160020714984255e-05  2.4158194878231575e-05  2.4156341047105352e-05  2.4154485563965876e-05  2.4152658073753925e-05  2.4150890995325870e-05  2.4149218736987452e-05  2.4147676664265423e-05  2.4146299852863966e-05  2.4145121686093300e-05  2.4144172380392717e-05  2.4143477541052619e-05  2.4143056859284719e-05  2.4142923058824915e-05  2.4143081184382061e-05  2.4143528296623888e-05  2.4144253602194699e-05  2.4145239007206198e-05  2.4146460044153768e-05  2.4147887090410061e-05  2.4149486775233205e-05  2.4151223463636165e-05  2.4153060709457305e-05  2.4154962584656212e-05  2.4156894814035396e-05  2.4158825670481450e-05  2.4160726611780139e-05  2.4162572663120154e-05  2.4164342567586800e-05  2.4166018739351890e-05  2.4167587060923458e-05  2.4169036567459102e-05  2.4170359058908803e-05  2.4171548675921821e-05  2.4172601469250011e-05  2.4173514985829226e-05  2.4174287888553318e-05  2.4174919621316736e-05  2.4175410125964461e-05  2.4175759612225847e-05  2.4175968373452682e-05  2.4176036629584030e-05  2.3524201055851808e-05  2.3528807390268079e-05  2.3542895140561449e-05  2.3565681723345742e-05  2.3595950327486870e-05  2.3632175671175001e-05  2.3672669316012932e-05  2.3715724550366769e-05  2.3759743031571140e-05  2.3803330459322052e-05  2.3845355305767036e-05  2.3884971304084425e-05  2.3921609522358208e-05  2.3954948674315897e-05  2.3984872876199231e-05  2.4011424928916263e-05  2.4034761169539288e-05  2.4055111698609698e-05  2.4072747823371322e-05  2.4087957086974403e-05  2.4101025312760919e-05  2.4112224601731838e-05  2.4121806057810056e-05  2.4129996058839171e-05  2.4136995044198256e-05  2.4142977984498767e-05  2.4148095893287834e-05  2.4152477913061381e-05  2.4156233649493379e-05  2.4159455537805103e-05  2.4162221106890047e-05  2.4164595065055812e-05  2.4166631171138272e-05  2.4168373880883162e-05  2.4169859774699137e-05  2.4171118782173374e-05  2.4172175223379329e-05  2.4173048688658669e-05  2.4173754778404583e-05  2.4174305723226133e-05  2.4174710903277170e-05  2.4174977283840187e-05  2.4175109782679405e-05  2.4175111583337877e-05  2.4174984407502043e-05  2.4174728758796862e-05  2.4174344149869602e-05  2.4173829324300562e-05  2.4173182484640019e-05  2.4172401537572518e-05  2.4171484366671720e-05  2.4170429142213079e-05  2.4169234675802041e-05  2.4167900824877336e-05  2.4166428948191513e-05  2.4164822407933063e-05  2.4163087107126832e-05  2.4161232042412877e-05  2.4159269842619797e-05  2.4157217253441266e-05  2.4155095519135402e-05  2.4152930605047200e-05  2.4150753201761487e-05  2.4148598454767482e-05  2.4146505374325032e-05  2.4144515899717617e-05  2.4142673620021447e-05  2.4141022188117471e-05  2.4139603502437664e-05  2.4138455766922797e-05  2.4137611568119188e-05  2.4137096123701151e-05  2.4136925854804886e-05  2.4137107413698642e-05  2.4137637259924330e-05  2.4138501826702600e-05  2.4139678262106087e-05  2.4141135674418072e-05  2.4142836765909661e-05  2.4144739709790617e-05  2.4146800114232287e-05  2.4148972924847132e-05  2.4151214139754489e-05  2.4153482244385220e-05  2.4155739310751513e-05  2.4157951742653176e-05  2.4160090679994447e-05  2.4162132099419999e-05  2.4164056663849320e-05  2.4165849380571909e-05  2.4167499127694929e-05  2.4168998103741976e-05  2.4170341247018443e-05  2.4171525661725509e-05  2.4172550078090315e-05  2.4173414364903735e-05  2.4174119105259969e-05  2.4174665239949640e-05  2.4175053777483807e-05  2.4175285564889679e-05  2.4175361110742177e-05  2.3580899009720927e-05  2.3584974841555894e-05  2.3597481670401804e-05  2.3617743274710535e-05  2.3644702724527693e-05  2.3677029559553739e-05  2.3713244956071799e-05  2.3751847316722953e-05  2.3791422753622324e-05  2.3830729412255795e-05  2.3868750352019494e-05  2.3904715345228216e-05  2.3938096308268974e-05  2.3968583535769735e-05  2.3996050488117470e-05  2.4020514040300144e-05  2.4042095465235985e-05  2.4060985574544347e-05  2.4077415775487485e-05  2.4091635527190231e-05  2.4103895835979233e-05  2.4114437965401491e-05  2.4123486356387370e-05  2.4131244758836584e-05  2.4137894685641111e-05  2.4143595454542427e-05  2.4148485244397821e-05  2.4152682739382704e-05  2.4156289058030228e-05  2.4159389761688575e-05  2.4162056810796288e-05  2.4164350390945436e-05  2.4166320568093604e-05  2.4168008757329039e-05  2.4169449005568286e-05  2.4170669098111041e-05  2.4171691504127860e-05  2.4172534178426852e-05  2.4173211237330705e-05  2.4173733525965951e-05  2.4174109093249661e-05  2.4174343589704634e-05  2.4174440602165896e-05  2.4174401938590737e-05  2.4174227875618937e-05  2.4173917381266977e-05  2.4173468325155708e-05  2.4172877688901990e-05  2.4172141789644236e-05  2.4171256529963053e-05  2.4170217687487028e-05  2.4169021256961623e-05  2.4167663856163266e-05  2.4166143204365198e-05  2.4164458677685715e-05  2.4162611939181832e-05  2.4160607632713879e-05  2.4158454118347904e-05  2.4156164213699856e-05  2.4153755890986025e-05  2.4151252865086989e-05  2.4148684995784344e-05  2.4146088420195637e-05  2.4143505332310538e-05  2.4140983338218214e-05  2.4138574340025563e-05  2.4136332938864247e-05  2.4134314395721083e-05  2.4132572243397262e-05  2.4131155696571670e-05  2.4130107051041488e-05  2.4129459289065549e-05  2.4129234108547122e-05  2.4129440566426774e-05  2.4130074472796901e-05  2.4131118598525687e-05  2.4132543676109031e-05  2.4134310093434593e-05  2.4136370114878535e-05  2.4138670422432638e-05  2.4141154755625627e-05  2.4143766442141943e-05  2.4146450646248740e-05  2.4149156211617503e-05  2.4151837030118715e-05  2.4154452920678467e-05  2.4156970046286041e-05  2.4159360929240590e-05  2.4161604143725005e-05  2.4163683771810435e-05  2.4165588706346834e-05  2.4167311874794911e-05  2.4168849444806412e-05  2.4170200057755912e-05  2.4171364122338190e-05  2.4172343187967453e-05  2.4173139407628959e-05  2.4173755092142913e-05  2.4174192352360818e-05  2.4174452822635639e-05  2.4174537458725084e-05  2.3638976140859285e-05  2.3642535091376893e-05  2.3653475513940227e-05  2.3671223079179299e-05  2.3694876110950325e-05  2.3723295146056652e-05  2.3755208316527055e-05  2.3789317788504752e-05  2.3824394140137764e-05  2.3859349280074610e-05  2.3893283276845062e-05  2.3925505133853459e-05  2.3955531171844506e-05  2.3983066788715787e-05  2.4007977954961826e-05  2.4030258218120841e-05  2.4049995723050578e-05  2.4067343268780261e-05  2.4082493049390497e-05  2.4095656644301619e-05  2.4107050083152264e-05  2.4116883380733679e