<?xml version="1.0"?>
<VTKFile type="UnstructuredGrid"  version="0.1"  >
<UnstructuredGrid>
<Piece  NumberOfPoints="10201" NumberOfCells="20000">
<Points>
<DataArray  type="Float64"  NumberOfComponents="3"  format="ascii">0 0 0  0.25 0 0  0.5 0 0  0.75 0 0  1 0 0  1.25 0 0  1.5 0 0  1.75 0 0  2 0 0  2.25 0 0  2.5 0 0  2.75 0 0  3 0 0  3.25 0 0  3.5 0 0  3.75 0 0  4 0 0  4.25 0 0  4.5 0 0  4.75 0 0  5 0 0  5.25 0 0  5.5 0 0  5.75 0 0  6 0 0  6.25 0 0  6.5 0 0  6.75 0 0  7 0 0  7.25 0 0  7.5 0 0  7.75 0 0  8 0 0  8.25 0 0  8.5 0 0  8.75 0 0  9 0 0  9.25 0 0  9.5 0 0  9.75 0 0  10 0 0  10.25 0 0  10.5 0 0  10.75 0 0  11 0 0  11.25 0 0  11.5 0 0  11.75 0 0  12 0 0  12.25 0 0  12.5 0 0  12.75 0 0  13 0 0  13.25 0 0  13.5 0 0  13.75 0 0  14 0 0  14.25 0 0  14.5 0 0  14.75 0 0  15 0 0  15.25 0 0  15.5 0 0  15.75 0 0  16 0 0  16.25 0 0  16.5 0 0  16.75 0 0  17 0 0  17.25 0 0  17.5 0 0  17.75 0 0  18 0 0  18.25 0 0  18.5 0 0  18.75 0 0  19 0 0  19.25 0 0  19.5 0 0  19.75 0 0  20 0 0  20.25 0 0  20.5 0 0  20.75 0 0  21 0 0  21.25 0 0  21.5 0 0  21.75 0 0  22 0 0  22.25 0 0  22.5 0 0  22.75 0 0  23 0 0  23.25 0 0  23.5 0 0  23.75 0 0  24 0 0  24.25 0 0  24.5 0 0  24.75 0 0  25 0 0  0 0.25 0  0.25 0.25 0  0.5 0.25 0  0.75 0.25 0  1 0.25 0  1.25 0.25 0  1.5 0.25 0  1.75 0.25 0  2 0.25 0  2.25 0.25 0  2.5 0.25 0  2.75 0.25 0  3 0.25 0  3.25 0.25 0  3.5 0.25 0  3.75 0.25 0  4 0.25 0  4.25 0.25 0  4.5 0.25 0  4.75 0.25 0  5 0.25 0  5.25 0.25 0  5.5 0.25 0  5.75 0.25 0  6 0.25 0  6.25 0.25 0  6.5 0.25 0  6.75 0.25 0  7 0.25 0  7.25 0.25 0  7.5 0.25 0  7.75 0.25 0  8 0.25 0  8.25 0.25 0  8.5 0.25 0  8.75 0.25 0  9 0.25 0  9.25 0.25 0  9.5 0.25 0  9.75 0.25 0  10 0.25 0  10.25 0.25 0  10.5 0.25 0  10.75 0.25 0  11 0.25 0  11.25 0.25 0  11.5 0.25 0  11.75 0.25 0  12 0.25 0  12.25 0.25 0  12.5 0.25 0  12.75 0.25 0  13 0.25 0  13.25 0.25 0  13.5 0.25 0  13.75 0.25 0  14 0.25 0  14.25 0.25 0  14.5 0.25 0  14.75 0.25 0  15 0.25 0  15.25 0.25 0  15.5 0.25 0  15.75 0.25 0  16 0.25 0  16.25 0.25 0  16.5 0.25 0  16.75 0.25 0  17 0.25 0  17.25 0.25 0  17.5 0.25 0  17.75 0.25 0  18 0.25 0  18.25 0.25 0  18.5 0.25 0  18.75 0.25 0  19 0.25 0  19.25 0.25 0  19.5 0.25 0  19.75 0.25 0  20 0.25 0  20.25 0.25 0  20.5 0.25 0  20.75 0.25 0  21 0.25 0  21.25 0.25 0  21.5 0.25 0  21.75 0.25 0  22 0.25 0  22.25 0.25 0  22.5 0.25 0  22.75 0.25 0  23 0.25 0  23.25 0.25 0  23.5 0.25 0  23.75 0.25 0  24 0.25 0  24.25 0.25 0  24.5 0.25 0  24.75 0.25 0  25 0.25 0  0 0.5 0  0.25 0.5 0  0.5 0.5 0  0.75 0.5 0  1 0.5 0  1.25 0.5 0  1.5 0.5 0  1.75 0.5 0  2 0.5 0  2.25 0.5 0  2.5 0.5 0  2.75 0.5 0  3 0.5 0  3.25 0.5 0  3.5 0.5 0  3.75 0.5 0  4 0.5 0  4.25 0.5 0  4.5 0.5 0  4.75 0.5 0  5 0.5 0  5.25 0.5 0  5.5 0.5 0  5.75 0.5 0  6 0.5 0  6.25 0.5 0  6.5 0.5 0  6.75 0.5 0  7 0.5 0  7.25 0.5 0  7.5 0.5 0  7.75 0.5 0  8 0.5 0  8.25 0.5 0  8.5 0.5 0  8.75 0.5 0  9 0.5 0  9.25 0.5 0  9.5 0.5 0  9.75 0.5 0  10 0.5 0  10.25 0.5 0  10.5 0.5 0  10.75 0.5 0  11 0.5 0  11.25 0.5 0  11.5 0.5 0  11.75 0.5 0  12 0.5 0  12.25 0.5 0  12.5 0.5 0  12.75 0.5 0  13 0.5 0  13.25 0.5 0  13.5 0.5 0  13.75 0.5 0  14 0.5 0  14.25 0.5 0  14.5 0.5 0  14.75 0.5 0  15 0.5 0  15.25 0.5 0  15.5 0.5 0  15.75 0.5 0  16 0.5 0  16.25 0.5 0  16.5 0.5 0  16.75 0.5 0  17 0.5 0  17.25 0.5 0  17.5 0.5 0  17.75 0.5 0  18 0.5 0  18.25 0.5 0  18.5 0.5 0  18.75 0.5 0  19 0.5 0  19.25 0.5 0  19.5 0.5 0  19.75 0.5 0  20 0.5 0  20.25 0.5 0  20.5 0.5 0  20.75 0.5 0  21 0.5 0  21.25 0.5 0  21.5 0.5 0  21.75 0.5 0  22 0.5 0  22.25 0.5 0  22.5 0.5 0  22.75 0.5 0  23 0.5 0  23.25 0.5 0  23.5 0.5 0  23.75 0.5 0  24 0.5 0  24.25 0.5 0  24.5 0.5 0  24.75 0.5 0  25 0.5 0  0 0.75 0  0.25 0.75 0  0.5 0.75 0  0.75 0.75 0  1 0.75 0  1.25 0.75 0  1.5 0.75 0  1.75 0.75 0  2 0.75 0  2.25 0.75 0  2.5 0.75 0  2.75 0.75 0  3 0.75 0  3.25 0.75 0  3.5 0.75 0  3.75 0.75 0  4 0.75 0  4.25 0.75 0  4.5 0.75 0  4.75 0.75 0  5 0.75 0  5.25 0.75 0  5.5 0.75 0  5.75 0.75 0  6 0.75 0  6.25 0.75 0  6.5 0.75 0  6.75 0.75 0  7 0.75 0  7.25 0.75 0  7.5 0.75 0  7.75 0.75 0  8 0.75 0  8.25 0.75 0  8.5 0.75 0  8.75 0.75 0  9 0.75 0  9.25 0.75 0  9.5 0.75 0  9.75 0.75 0  10 0.75 0  10.25 0.75 0  10.5 0.75 0  10.75 0.75 0  11 0.75 0  11.25 0.75 0  11.5 0.75 0  11.75 0.75 0  12 0.75 0  12.25 0.75 0  12.5 0.75 0  12.75 0.75 0  13 0.75 0  13.25 0.75 0  13.5 0.75 0  13.75 0.75 0  14 0.75 0  14.25 0.75 0  14.5 0.75 0  14.75 0.75 0  15 0.75 0  15.25 0.75 0  15.5 0.75 0  15.75 0.75 0  16 0.75 0  16.25 0.75 0  16.5 0.75 0  16.75 0.75 0  17 0.75 0  17.25 0.75 0  17.5 0.75 0  17.75 0.75 0  18 0.75 0  18.25 0.75 0  18.5 0.75 0  18.75 0.75 0  19 0.75 0  19.25 0.75 0  19.5 0.75 0  19.75 0.75 0  20 0.75 0  20.25 0.75 0  20.5 0.75 0  20.75 0.75 0  21 0.75 0  21.25 0.75 0  21.5 0.75 0  21.75 0.75 0  22 0.75 0  22.25 0.75 0  22.5 0.75 0  22.75 0.75 0  23 0.75 0  23.25 0.75 0  23.5 0.75 0  23.75 0.75 0  24 0.75 0  24.25 0.75 0  24.5 0.75 0  24.75 0.75 0  25 0.75 0  0 1 0  0.25 1 0  0.5 1 0  0.75 1 0  1 1 0  1.25 1 0  1.5 1 0  1.75 1 0  2 1 0  2.25 1 0  2.5 1 0  2.75 1 0  3 1 0  3.25 1 0  3.5 1 0  3.75 1 0  4 1 0  4.25 1 0  4.5 1 0  4.75 1 0  5 1 0  5.25 1 0  5.5 1 0  5.75 1 0  6 1 0  6.25 1 0  6.5 1 0  6.75 1 0  7 1 0  7.25 1 0  7.5 1 0  7.75 1 0  8 1 0  8.25 1 0  8.5 1 0  8.75 1 0  9 1 0  9.25 1 0  9.5 1 0  9.75 1 0  10 1 0  10.25 1 0  10.5 1 0  10.75 1 0  11 1 0  11.25 1 0  11.5 1 0  11.75 1 0  12 1 0  12.25 1 0  12.5 1 0  12.75 1 0  13 1 0  13.25 1 0  13.5 1 0  13.75 1 0  14 1 0  14.25 1 0  14.5 1 0  14.75 1 0  15 1 0  15.25 1 0  15.5 1 0  15.75 1 0  16 1 0  16.25 1 0  16.5 1 0  16.75 1 0  17 1 0  17.25 1 0  17.5 1 0  17.75 1 0  18 1 0  18.25 1 0  18.5 1 0  18.75 1 0  19 1 0  19.25 1 0  19.5 1 0  19.75 1 0  20 1 0  20.25 1 0  20.5 1 0  20.75 1 0  21 1 0  21.25 1 0  21.5 1 0  21.75 1 0  22 1 0  22.25 1 0  22.5 1 0  22.75 1 0  23 1 0  23.25 1 0  23.5 1 0  23.75 1 0  24 1 0  24.25 1 0  24.5 1 0  24.75 1 0  25 1 0  0 1.25 0  0.25 1.25 0  0.5 1.25 0  0.75 1.25 0  1 1.25 0  1.25 1.25 0  1.5 1.25 0  1.75 1.25 0  2 1.25 0  2.25 1.25 0  2.5 1.25 0  2.75 1.25 0  3 1.25 0  3.25 1.25 0  3.5 1.25 0  3.75 1.25 0  4 1.25 0  4.25 1.25 0  4.5 1.25 0  4.75 1.25 0  5 1.25 0  5.25 1.25 0  5.5 1.25 0  5.75 1.25 0  6 1.25 0  6.25 1.25 0  6.5 1.25 0  6.75 1.25 0  7 1.25 0  7.25 1.25 0  7.5 1.25 0  7.75 1.25 0  8 1.25 0  8.25 1.25 0  8.5 1.25 0  8.75 1.25 0  9 1.25 0  9.25 1.25 0  9.5 1.25 0  9.75 1.25 0  10 1.25 0  10.25 1.25 0  10.5 1.25 0  10.75 1.25 0  11 1.25 0  11.25 1.25 0  11.5 1.25 0  11.75 1.25 0  12 1.25 0  12.25 1.25 0  12.5 1.25 0  12.75 1.25 0  13 1.25 0  13.25 1.25 0  13.5 1.25 0  13.75 1.25 0  14 1.25 0  14.25 1.25 0  14.5 1.25 0  14.75 1.25 0  15 1.25 0  15.25 1.25 0  15.5 1.25 0  15.75 1.25 0  16 1.25 0  16.25 1.25 0  16.5 1.25 0  16.75 1.25 0  17 1.25 0  17.25 1.25 0  17.5 1.25 0  17.75 1.25 0  18 1.25 0  18.25 1.25 0  18.5 1.25 0  18.75 1.25 0  19 1.25 0  19.25 1.25 0  19.5 1.25 0  19.75 1.25 0  20 1.25 0  20.25 1.25 0  20.5 1.25 0  20.75 1.25 0  21 1.25 0  21.25 1.25 0  21.5 1.25 0  21.75 1.25 0  22 1.25 0  22.25 1.25 0  22.5 1.25 0  22.75 1.25 0  23 1.25 0  23.25 1.25 0  23.5 1.25 0  23.75 1.25 0  24 1.25 0  24.25 1.25 0  24.5 1.25 0  24.75 1.25 0  25 1.25 0  0 1.5 0  0.25 1.5 0  0.5 1.5 0  0.75 1.5 0  1 1.5 0  1.25 1.5 0  1.5 1.5 0  1.75 1.5 0  2 1.5 0  2.25 1.5 0  2.5 1.5 0  2.75 1.5 0  3 1.5 0  3.25 1.5 0  3.5 1.5 0  3.75 1.5 0  4 1.5 0  4.25 1.5 0  4.5 1.5 0  4.75 1.5 0  5 1.5 0  5.25 1.5 0  5.5 1.5 0  5.75 1.5 0  6 1.5 0  6.25 1.5 0  6.5 1.5 0  6.75 1.5 0  7 1.5 0  7.25 1.5 0  7.5 1.5 0  7.75 1.5 0  8 1.5 0  8.25 1.5 0  8.5 1.5 0  8.75 1.5 0  9 1.5 0  9.25 1.5 0  9.5 1.5 0  9.75 1.5 0  10 1.5 0  10.25 1.5 0  10.5 1.5 0  10.75 1.5 0  11 1.5 0  11.25 1.5 0  11.5 1.5 0  11.75 1.5 0  12 1.5 0  12.25 1.5 0  12.5 1.5 0  12.75 1.5 0  13 1.5 0  13.25 1.5 0  13.5 1.5 0  13.75 1.5 0  14 1.5 0  14.25 1.5 0  14.5 1.5 0  14.75 1.5 0  15 1.5 0  15.25 1.5 0  15.5 1.5 0  15.75 1.5 0  16 1.5 0  16.25 1.5 0  16.5 1.5 0  16.75 1.5 0  17 1.5 0  17.25 1.5 0  17.5 1.5 0  17.75 1.5 0  18 1.5 0  18.25 1.5 0  18.5 1.5 0  18.75 1.5 0  19 1.5 0  19.25 1.5 0  19.5 1.5 0  19.75 1.5 0  20 1.5 0  20.25 1.5 0  20.5 1.5 0  20.75 1.5 0  21 1.5 0  21.25 1.5 0  21.5 1.5 0  21.75 1.5 0  22 1.5 0  22.25 1.5 0  22.5 1.5 0  22.75 1.5 0  23 1.5 0  23.25 1.5 0  23.5 1.5 0  23.75 1.5 0  24 1.5 0  24.25 1.5 0  24.5 1.5 0  24.75 1.5 0  25 1.5 0  0 1.75 0  0.25 1.75 0  0.5 1.75 0  0.75 1.75 0  1 1.75 0  1.25 1.75 0  1.5 1.75 0  1.75 1.75 0  2 1.75 0  2.25 1.75 0  2.5 1.75 0  2.75 1.75 0  3 1.75 0  3.25 1.75 0  3.5 1.75 0  3.75 1.75 0  4 1.75 0  4.25 1.75 0  4.5 1.75 0  4.75 1.75 0  5 1.75 0  5.25 1.75 0  5.5 1.75 0  5.75 1.75 0  6 1.75 0  6.25 1.75 0  6.5 1.75 0  6.75 1.75 0  7 1.75 0  7.25 1.75 0  7.5 1.75 0  7.75 1.75 0  8 1.75 0  8.25 1.75 0  8.5 1.75 0  8.75 1.75 0  9 1.75 0  9.25 1.75 0  9.5 1.75 0  9.75 1.75 0  10 1.75 0  10.25 1.75 0  10.5 1.75 0  10.75 1.75 0  11 1.75 0  11.25 1.75 0  11.5 1.75 0  11.75 1.75 0  12 1.75 0  12.25 1.75 0  12.5 1.75 0  12.75 1.75 0  13 1.75 0  13.25 1.75 0  13.5 1.75 0  13.75 1.75 0  14 1.75 0  14.25 1.75 0  14.5 1.75 0  14.75 1.75 0  15 1.75 0  15.25 1.75 0  15.5 1.75 0  15.75 1.75 0  16 1.75 0  16.25 1.75 0  16.5 1.75 0  16.75 1.75 0  17 1.75 0  17.25 1.75 0  17.5 1.75 0  17.75 1.75 0  18 1.75 0  18.25 1.75 0  18.5 1.75 0  18.75 1.75 0  19 1.75 0  19.25 1.75 0  19.5 1.75 0  19.75 1.75 0  20 1.75 0  20.25 1.75 0  20.5 1.75 0  20.75 1.75 0  21 1.75 0  21.25 1.75 0  21.5 1.75 0  21.75 1.75 0  22 1.75 0  22.25 1.75 0  22.5 1.75 0  22.75 1.75 0  23 1.75 0  23.25 1.75 0  23.5 1.75 0  23.75 1.75 0  24 1.75 0  24.25 1.75 0  24.5 1.75 0  24.75 1.75 0  25 1.75 0  0 2 0  0.25 2 0  0.5 2 0  0.75 2 0  1 2 0  1.25 2 0  1.5 2 0  1.75 2 0  2 2 0  2.25 2 0  2.5 2 0  2.75 2 0  3 2 0  3.25 2 0  3.5 2 0  3.75 2 0  4 2 0  4.25 2 0  4.5 2 0  4.75 2 0  5 2 0  5.25 2 0  5.5 2 0  5.75 2 0  6 2 0  6.25 2 0  6.5 2 0  6.75 2 0  7 2 0  7.25 2 0  7.5 2 0  7.75 2 0  8 2 0  8.25 2 0  8.5 2 0  8.75 2 0  9 2 0  9.25 2 0  9.5 2 0  9.75 2 0  10 2 0  10.25 2 0  10.5 2 0  10.75 2 0  11 2 0  11.25 2 0 
[...]
<PointData  Scalars="f_26"> 
<DataArray  type="Float64"  Name="f_26"  format="ascii">2.3602690527899660e-05  2.3601871484221904e-05  2.3600109981702718e-05  2.3597260703453957e-05  2.3593227686573415e-05  2.3587917961877365e-05  2.3581237209127571e-05  2.3573096410113697e-05  2.3563421919356858e-05  2.3552166492322391e-05  2.3539320010253830e-05  2.3524918966666090e-05  2.3509053920758705e-05  2.3491874246910853e-05  2.3473589662437785e-05  2.3454468208177787e-05  2.3434830584209601e-05  2.3415040993062154e-05  2.3395494895379708e-05  2.3376604313925362e-05  2.3358781505669530e-05  2.3342421936165970e-05  2.3327887520917546e-05  2.3315491042956774e-05  2.3305482528129230e-05  2.3298038188295838e-05  2.3293252364695407e-05  2.3291132751318901e-05  2.3291599065609102e-05  2.3294485250955761e-05  2.3299545213816143e-05  2.3306461987411316e-05  2.3314860058625810e-05  2.3324320403018182e-05  2.3334397571599852e-05  2.3344637995963946e-05  2.3354598554433845e-05  2.3363864389376323e-05  2.3372064991668533e-05  2.3378887670556369e-05  2.3384087697334002e-05  2.3387494636075695e-05  2.3389014636878961e-05  2.3388628746654513e-05  2.3386387567594987e-05  2.3382402841848161e-05  2.3376836741534104e-05  2.3369889777887406e-05  2.3361788298591861e-05  2.3352772511658093e-05  2.3343085859126307e-05  2.3332966375135489e-05  2.3322640419715476e-05  2.3312318907993640e-05  2.3302195884102211e-05  2.3292449049753992e-05  2.3283241675301222e-05  2.3274725215016526e-05  2.3267041927637844e-05  2.3260326866551147e-05  2.3254708739960761e-05  2.3250309330798551e-05  2.3247241385201001e-05  2.3245605102381896e-05  2.3245483564619586e-05  2.3246937613838042e-05  2.3250000793854754e-05  2.3254675020540116e-05  2.3260927605460899e-05  2.3268690138534538e-05  2.3277859539309216e-05  2.3288301336111172e-05  2.3299854961816470e-05  2.3312340606076519e-05  2.3325566976630780e-05  2.3339339226685538e-05  2.3353466314670080e-05  2.3367767172359360e-05  2.3382075246840653e-05  2.3396241219402398e-05  2.3410133953078804e-05  2.3423639943686383e-05  2.3436661715742629e-05  2.3449115693345297e-05  2.3460930077872892e-05  2.3472043183331295e-05  2.3482402532523999e-05  2.3491964828572989e-05  2.3500696717646180e-05  2.3508576081688421e-05  2.3515593472064729e-05  2.3521753235766654e-05  2.3527073903798181e-05  2.3531587503106347e-05  2.3535337603925099e-05  2.3538376098566513e-05  2.3540758891052797e-05  2.3542540808359083e-05  2.3543770009183187e-05  2.3544481555691072e-05  2.3544686776392012e-05  2.3601264953382754e-05  2.3600650073539976e-05  2.3598939529207390e-05  2.3596106893672430e-05  2.3592083600206927e-05  2.3586784277141231e-05  2.3580117593721440e-05  2.3571996323969353e-05  2.3562348221674561e-05  2.3551127226309798e-05  2.3538324198795099e-05  2.3523976371340550e-05  2.3508174753440538e-05  2.3491068837999062e-05  2.3472868097715888e-05  2.3453839951290423e-05  2.3434304104669086e-05  2.3414623420684382e-05  2.3395191721133810e-05  2.3376419154531777e-05  2.3358715945210515e-05  2.3342475452896964e-05  2.3328057501878094e-05  2.3315772883437622e-05  2.3305869808150647e-05  2.3298522914489398e-05  2.3293825263590648e-05  2.3291783598885771e-05  2.3292317037577797e-05  2.3295259278454761e-05  2.3300364328976866e-05  2.3307315643865495e-05  2.3315738412620396e-05  2.3325214542595516e-05  2.3335299684169251e-05  2.3345541468559518e-05  2.3355498005657396e-05  2.3364755636920520e-05  2.3372944963813181e-05  2.3379754273619042e-05  2.3384939653387768e-05  2.3388331306165113e-05  2.3389835844488121e-05  2.3389434614460492e-05  2.3387178377826177e-05  2.3383178927178459e-05  2.3377598409744191e-05  2.3370637269895706e-05  2.3362521776262741e-05  2.3353492069334347e-05  2.3343791551304987e-05  2.3333658252182764e-05  2.3323318563940825e-05  2.3312983463611932e-05  2.3302847076366483e-05  2.3293087190571178e-05  2.3283867154682408e-05  2.3275338479535944e-05  2.3267643448516829e-05  2.3260917100958171e-05  2.3255288089614217e-05  2.3250878102019871e-05  2.3247799754260138e-05  2.3246153089365523e-05  2.3246021018168855e-05  2.3247464207968881e-05  2.3250516036738720e-05  2.3255178273710732e-05  2.3261418110635398e-05  2.3269167048376468e-05  2.3278321948247578e-05  2.3288748307891354e-05  2.3300285551710736e-05  2.3312753877363801e-05  2.3325962012686957e-05  2.3339715141412442e-05  2.3353822264721086e-05  2.3368102374523722e-05  2.3382389003027152e-05  2.3396532950073268e-05  2.3410403238006253e-05  2.3423886566886581e-05  2.3436885709748529e-05  2.3449317376927465e-05  2.3461110081131345e-05  2.3472202454855799e-05  2.3482542325005934e-05  2.3492086661656534e-05  2.3500802319622197e-05  2.3508667314479400e-05  2.3515672246427623e-05  2.3521821425410703e-05  2.3527133267970176e-05  2.3531639627186525e-05  2.3535383867306649e-05  2.3538417680763742e-05  2.3540796838738898e-05  2.3542576241454309e-05  2.3543804794688402e-05  2.3544520949639594e-05  2.3544751251258176e-05  2.3597717237279125e-05  2.3597155305486998e-05  2.3595483478989215e-05  2.3592677235113011e-05  2.3588677996299902e-05  2.3583407545645100e-05  2.3576779756749742e-05  2.3568711742182734e-05  2.3559135180035330e-05  2.3548007605114240e-05  2.3535323062915836e-05  2.3521121408866573e-05  2.3505495543948950e-05  2.3488595959456873e-05  2.3470632101239847e-05  2.3451870248559693e-05  2.3432627824340484e-05  2.3413264297196346e-05  2.3394169081099877e-05  2.3375747062096255e-05  2.3358402558365219e-05  2.3342522628560879e-05  2.3328460669910202e-05  2.3316521190707540e-05  2.3306946515772576e-05  2.3299906016706268e-05  2.3295488287178536e-05  2.3293696537546268e-05  2.3294447375324670e-05  2.3297573057361293e-05  2.3302827217972518e-05  2.3309893965888044e-05  2.3318400088063285e-05  2.3327929909156393e-05  2.3338042158287311e-05  2.3348288022171902e-05  2.3358229443531197e-05  2.3367456673080568e-05  2.3375604109008984e-05  2.3382363557840158e-05  2.3387494216946167e-05  2.3390828899048742e-05  2.3392276276238034e-05  2.3391819195830437e-05  2.3389509391376525e-05  2.3385459157399836e-05  2.3379830755101075e-05  2.3372824450169853e-05  2.3364666139566151e-05  2.3355595494855438e-05  2.3345855436808216e-05  2.3335683569891388e-05  2.3325305964915168e-05  2.3314933409153268e-05  2.3304759975256614e-05  2.3294963522914247e-05  2.3285707566473791e-05  2.3277143836499390e-05  2.3269414842835106e-05  2.3262655809861811e-05  2.3256995489977071e-05  2.3252555549749355e-05  2.3249448441006612e-05  2.3247773891587952e-05  2.3247614354609665e-05  2.3249029920918269e-05  2.3252053310057971e-05  2.3256685596606463e-05  2.3262893291076751e-05  2.3270607274529951e-05  2.3279723891224374e-05  2.3290108255275653e-05  2.3301599559339360e-05  2.3314017926845969e-05  2.3327172163962437e-05  2.3340867672687585e-05  2.3354913795657825e-05  2.3369129971841340e-05  2.3383350270098915e-05  2.3397426103276700e-05  2.3411227172406656e-05  2.3424640912460461e-05  2.3437570877181617e-05  2.3449934589607746e-05  2.3461661387920330e-05  2.3472690717134569e-05  2.3482971171776878e-05  2.3492460408320997e-05  2.3501125849351422e-05  2.3508945925477777e-05  2.3515911473263433e-05  2.3522026847263527e-05  2.3527310320473362e-05  2.3531793437161837e-05  2.3535519131364629e-05  2.3538538611053463e-05  2.3540907206227033e-05  2.3542679566599939e-05  2.3543904765001046e-05  2.3544622038955115e-05  2.3544858055435370e-05  2.3591979845726280e-05  2.3591436604766031e-05  2.3589791196112448e-05  2.3587013714431212e-05  2.3583048918510716e-05  2.3577824195071568e-05  2.3571259479575168e-05  2.3563278007256818e-05  2.3553817484037098e-05  2.3542841186072552e-05  2.3530348358215047e-05  2.3516383219016656e-05  2.3501041894837952e-05  2.3484476685367168e-05  2.3466897197760210e-05  2.3448568068039047e-05  2.3429803205322784e-05  2.3410956731562173e-05  2.3392411026768467e-05  2.3374562504057243e-05  2.3357805906380327e-05  2.3342518017100811e-05  2.3329041697006402e-05  2.3317671100810263e-05  2.3308638801600414e-05  2.3302105390536340e-05  2.3298151955821674e-05  2.3296775707757998e-05  2.3297888915463888e-05  2.3301321243127080e-05  2.3306825491869902e-05  2.3314086640552874e-05  2.3322733923915197e-05  2.3332355499597749e-05  2.3342515063174868e-05  2.3352769603539896e-05  2.3362687375846212e-05  2.3371865121704831e-05  2.3379943592524091e-05  2.3386620529991597e-05  2.3391660420235294e-05  2.3394900553114024e-05  2.3396253169531184e-05  2.3395703748761433e-05  2.3393305753670010e-05  2.3389172392853908e-05  2.3383466154468646e-05  2.3376386998763525e-05  2.3368160151641800e-05  2.3359024412946248e-05  2.3349221781864347e-05  2.3338989018027932e-05  2.3328551519266574e-05  2.3318119631054946e-05  2.3307887237806603e-05  2.3298032251807303e-05  2.3288718437565022e-05  2.3280097906394161e-05  2.3272313597316812e-05  2.3265501124444958e-05  2.3259789506528213e-05  2.3255300482156420e-05  2.3252146330533659e-05  2.3250426338134463e-05  2.3250222253018665e-05  2.3251593231330184e-05  2.3254570887930023e-05  2.3259155101621486e-05  2.3265311185422501e-05  2.3272968911071658e-05  2.3282023682367579e-05  2.3292339905308381e-05  2.3303756337935800e-05  2.3316092959814036e-05  2.3329158719136043e-05  2.3342759423387712e-05  2.3356705050247285e-05  2.3370815864300555e-05  2.3384926912081037e-05  2.3398890701876775e-05  2.3412578119428254e-05  2.3425877850265722e-05  2.3438694743685011e-05  2.3450947641387528e-05  2.3462567196752815e-05  2.3473494132514437e-05  2.3483678241024458e-05  2.3493078247225682e-05  2.3501662460056765e-05  2.3509409964109736e-05  2.3516311976857102e-05  2.3522372936795374e-05  2.3527610903115872e-05  2.3532056935256383e-05  2.3535753267421333e-05  2.3538750277061064e-05  2.3541102440957898e-05  2.3542863651246726e-05  2.3544082401331117e-05  2.3544797413686240e-05  2.3545034165955319e-05  2.3584079055736621e-05  2.3583546587365058e-05  2.3581923254419751e-05  2.3579177472105441e-05  2.3575256840917773e-05  2.3570094245210018e-05  2.3563616501519280e-05  2.3555754410618320e-05  2.3546453460684239e-05  2.3535684508782156e-05  2.3523453752226664e-05  2.3509811295346589e-05  2.3494857654679869e-05  2.3478747633866242e-05  2.3461691136686714e-05  2.3443950666542692e-05  2.3425835472663532e-05  2.3407692532356281e-05  2.3389894785243098e-05  2.3372827237394205e-05  2.3356871708095130e-05  2.3342391080813527e-05  2.3329713931961173e-05  2.3319120347805304e-05  2.3310829617366943e-05  2.3304990335591026e-05  2.3301673299015506e-05  2.3300867450458026e-05  2.3302479036470113e-05  2.3306334067222266e-05  2.3312184086285017e-05  2.3319715143349638e-05  2.3328559708156966e-05  2.3338311080673400e-05  2.3348539666828275e-05  2.3358810330227973e-05  2.3368699921971740e-05  2.3377814047380841e-05  2.3385802155453996e-05  2.3392370132528209e-05  2.3397289739072496e-05  2.3400404436601274e-05  2.3401631395451498e-05  2.3400959735615470e-05  2.3398445311815582e-05  2.3394202589525894e-05  2.3388394350306147e-05  2.3381220094652195e-05  2.3372904065037411e-05  2.3363683783819537e-05  2.3353799891220688e-05  2.3343487887588155e-05  2.3332972150075961e-05  2.3322462331994298e-05  2.3312151992439844e-05  2.3302219073687839e-05  2.3292827669752440e-05  2.3284130429959049e-05  2.3276270925248943e-05  2.3269385370644880e-05  2.3263603233339708e-05  2.3259046443020689e-05  2.3255827135676649e-05  2.3254044079692859e-05  2.3253778130786753e-05  2.3255087220733572e-05  2.3258001487635000e-05  2.3262519189618651e-05  2.3268604000366156e-05  2.3276184161644009e-05  2.3285153773464897e-05  2.3295376258007156e-05  2.3306689772218760e-05  2.3318914105892728e-05  2.3331858424930349e-05  2.3345329131465881e-05  2.3359137125826411e-05  2.3373103865021420e-05  2.3387065798539080e-05  2.3400876993992617e-05  2.3414410006880592e-05  2.3427555265205853e-05  2.3440219401234460e-05  2.3452323048934302e-05  2.3463798628091297e-05  2.3474588558804096e-05  2.3484644208598796e-05  2.3493925693294510e-05  2.3502402461574808e-05  2.3510054422160521e-05  2.3516873247860385e-05  2.3522863431290102e-05  2.3528042681190846e-05  2.3532441333332131e-05  2.3536100592682956e-05  2.3539069602216693e-05  2.3541401521513389e-05  2.3543148966475800e-05  2.3544359281034069e-05  2.3545070151280153e-05  2.3545305994803920e-05  2.3574084772440707e-05  2.3573561816309765e-05  2.3571961091900982e-05  2.3569252071146170e-05  2.3565386193542300e-05  2.3560302527310188e-05  2.3553935709573206e-05  2.3546225355565109e-05  2.3537126186299005e-05  2.3526618154083071e-05  2.3514715853563522e-05  2.3501476527264118e-05  2.3487006030178605e-05  2.3471462216248711e-05  2.3455055350853886e-05  2.3438045332498726e-05  2.3420735713582937e-05  2.3403464729722423e-05  2.3386593760859716e-05  2.3370493834291979e-05  2.3355530918978715e-05  2.3342050835271594e-05  2.3330364606022764e-05  2.3320735007486559e-05  2.3313364958733175e-05  2.3308388244190684e-05  2.3305862925366679e-05  2.3305767685536849e-05  2.3308001267916430e-05  2.3312385097530670e-05  2.3318669094163111e-05  2.3326540567730854e-05  2.3335635933607825e-05  2.3345554807371344e-05  2.3355875861401980e-05  2.3366173676683274e-05  2.3376035723182700e-05  2.3385078563850711e-05  2.3392962405124282e-05  2.3399403209391969e-05  2.3404181736053522e-05  2.3407149077470893e-05  2.3408228490468042e-05  2.3407413576130063e-05  2.3404763111192819e-05  2.3400393062893153e-05  2.3394466505735127e-05  2.3387182285372653e-05  2.3378763328107827e-05  2.3369445467078172e-05  2.3359467548817192e-05  2.3349063406182075e-05  2.3338456053830966e-05  2.3327854205450862e-05  2.3317450956569017e-05  2.3307424251955336e-05  2.3297938587565420e-05  2.3289147301801599e-05  2.3281194798190842e-05  2.3274218109516499e-05  2.3268347350301132e-05  2.3263704791027112e-05  2.3260402499983549e-05  2.3258538712694249e-05  2.3258193281981325e-05  2.3259422714626271e-05  2.3262255397532934e-05  2.3266687644850784e-05  2.3272681149527204e-05  2.3280162296923619e-05  2.3289023603450808e-05  2.3299127301159477e-05  2.3310310832691795e-05  2.3322393788811863e-05  2.3335185649746718e-05  2.3348493608654812e-05  2.3362129772225424e-05  2.3375917144411082e-05  2.3389693984592136e-05  2.3403316360774457e-05  2.3416658956615952e-05  2.3429614403712425e-05  2.3442091568697507e-05  2.3454013308641186e-05  2.3465314209888475e-05  2.3475938749065883e-05  2.3485840175928886e-05  2.3494980240081636e-05  2.3503329696280593e-05  2.3510869355442900e-05  2.3517591326209073e-05  2.3523500033086153e-05  2.3528612610018248e-05  2.3532958349987138e-05  2.3536577028932441e-05  2.3539516094636770e-05  2.3541826891770222e-05  2.3543560254778383e-05  2.3544761913906800e-05  2.3545468204245660e-05  2.3545702533176794e-05  2.3562100055005994e-05  2.3561587347341892e-05  2.3560012363209965e-05  2.3557347083741435e-05  2.3553547790580122e-05  2.3548560559636658e-05  2.3542328736846707e-05  2.3534801779400338e-05  2.3525944776150901e-05  2.3515747939372824e-05  2.3504235362766478e-05  2.3491472371586277e-05  2.3477570857612756e-05  2.3462692098249154e-05  2.3447046704261970e-05  2.3430891518841983e-05  2.3414523491438498e-05  2.3398270758697972e-05  2.3382481363905144e-05  2.3367510215914248e-05  2.3353705009886901e-05  2.3341391890906410e-05  2.3330861631913742e-05  2.3322357025405389e-05  2.3316062072345106e-05  2.3312093418632032e-05  2.3310494365930797e-05  2.3311231685787066e-05  2.3314195392327031e-05  2.3319201562010465e-05  2.3325998205260973e-05  2.3334274077651912e-05  2.3343670166740841e-05  2.3353793419632977e-05  2.3364232109949095e-05  2.3374572105264767e-05  2.3384413205549297e-05  2.3393384690209159e-05  2.3401159239869932e-05  2.3407464487808819e-05  2.3412091599758227e-05  2.3414900470719785e-05  2.3415821350936082e-05  2.3414852954477197e-05  2.3412057344694235e-05  2.3407552111351075e-05  2.3401500534930040e-05  2.3394100556704046e-05  2.3385573425008872e-05  2.3376152861267973e-05  2.3366075484220409e-05  2.3355573056846373e-05  2.3344866895540716e-05  2.3334164529775953e-05  2.3323658451259967e-05  2.3313526572991748e-05  2.3303933855485925e-05  2.3295034467491493e-05  2.3286973839998537e-05  2.3279890043005242e-05  2.3273914052479599e-05  2.3269168660786804e-05  2.3265765993953788e-05  2.3263803809178178e-05  2.3263360933663549e-05  2.3264492352322889e-05  2.3267224541924411e-05  2.3271551671207287e-05  2.3277433233155684e-05  2.3284793546630217e-05  2.3293523369595951e-05  2.3303483626922449e-05  2.3314511004509304e-05  2.3326424936129358e-05  2.3339035345428679e-05  2.3352150428602808e-05  2.3365583784003605e-05  2.3379160307591458e-05  2.3392720457747737e-05  2.3406122719621817e-05  2.3419244333479051e-05  2.3431980559823439e-05  2.3444242908298478e-05  2.3455956838587466e-05  2.3467059442180671e-05  2.3477497538349437e-05  2.3487226481229191e-05  2.3496209801110353e-05  2.3504419620018129e-05  2.3511837617957229e-05  2.3518456206557432e-05  2.3524279508759820e-05  2.3529323754481819e-05  2.3533616780196960e-05  2.3537196452426191e-05  2.3540108000665985e-05  2.3542400418740096e-05  2.3544122248096235e-05  2.3545317167842692e-05  2.3546019866734825e-05  2.3546252656513666e-05  2.3548259800187225e-05  2.3547758797977817e-05  2.3546214103531478e-05  2.3543600939537557e-05  2.3539881128005489e-05  2.3535008406185342e-05  2.3528935506866782e-05  2.3521622466855083e-05  2.3513045528124294e-05  2.3503205952204924e-05  2.3492138065584879e-05  2.3479915889368728e-05  2.3466657780886300e-05  2.3452528628047801e-05  2.3437739285671400e-05  2.3422543119719402e-05  2.3407229719481221e-05  2.3392116034792146e-05  2.3377535378252029e-05  2.3363824882980216e-05  2.3351312108183476e-05  2.3340301526241729e-05  2.3331061603371764e-05  2.3323813109743673e-05  2.3318719183603552e-05  2.3315877552960586e-05  2.3315315210567994e-05  2.3316985754335796e-05  2.3320769540652769e-05  2.3326476734065500e-05  2.3333853252291218e-05  2.3342589488219419e-05  2.3352331542936408e-05  2.3362694541856330e-05  2.3373277452116391e-05  2.3383678694591778e-05  2.3393511763492468e-05  2.3402420039142388e-05  2.3410090008407999e-05  2.3416262191512127e-05  2.3420739209427488e-05  2.3423390605081072e-05  2.3424154243070225e-05  2.3423034341979438e-05  2.3420096423420402e-05  2.3415459673614231e-05  2.3409287387477615e-05  2.3401776284195313e-05  2.3393145533431353e-05  2.3383626304988235e-05  2.3373452552098932e-05  2.3362853568682302e-05  2.3352048641336333e-05  2.3341243871845500e-05  2.3330631003589669e-05  2.3320387873608415e-05  2.3310679955592762e-05  2.3301662375014741e-05  2.3293481773764063e-05  2.3286277475471843e-05  2.3280181541974359e-05  2.3275317496559361e-05  2.3271797697128100e-05  2.3269719547992204e-05  2.3269160920664228e-05  2.3270175293258437e-05  2.3272787200413321e-05  2.3276988600201585e-05  2.3282736705147341e-05  2.3289953691910796e-05  2.3298528508851784e-05  2.3308320764377863e-05  2.3319166433528253e-05  2.3330884902328048e-05  2.3343286713190417e-05  2.3356181304323877e-05  2.3369384061352487e-05  2.3382722113968557e-05  2.3396038494442728e-05  2.3409194498769089e-05  2.3422070321425295e-05  2.3434564238456653e-05  2.3446590763678301e-05  2.3458078281105080e-05  2.3468966656267736e-05  2.3479205254468759e-05  2.3488751660358419e-05  2.3497571223472985e-05  2.3505637375906163e-05  2.3512932508664871e-05  2.3519449076341990e-05  2.3525190542305630e-05  2.3530171786146340e-05  2.3534418668988128e-05  2.3537966578273778e-05  2.3540857932006529e-05  2.3543138788775192e-05  2.3544854858789486e-05  2.3546047319999588e-05  2.3546748896144308e-05  2.3546980644152831e-05  2.3532731276345794e-05  2.3532243706869183e-05  2.3530734608109759e-05  2.3528182784325797e-05  2.3524555979011223e-05  2.3519815968147202e-05  2.3513925253439021e-05  2.3506854849206499e-05  2.3498592559256187e-05  2.3489151092320406e-05  2.3478575362215114e-05  2.3466948359135222e-05  2.3454395059550922e-05  2.3441083960914930e-05  2.3427225978354533e-05  2.3413070615198324e-05  2.3398899505916389e-05  2.3385017614371405e-05  2.3371742535864698e-05  2.3359392481846659e-05  2.3348273607302319e-05  2.3338667364352747e