<?xml version="1.0"?>
<VTKFile type="UnstructuredGrid"  version="0.1"  >
<UnstructuredGrid>
<Piece  NumberOfPoints="10201" NumberOfCells="20000">
<Points>
<DataArray  type="Float64"  NumberOfComponents="3"  format="ascii">0 0 0  0.25 0 0  0.5 0 0  0.75 0 0  1 0 0  1.25 0 0  1.5 0 0  1.75 0 0  2 0 0  2.25 0 0  2.5 0 0  2.75 0 0  3 0 0  3.25 0 0  3.5 0 0  3.75 0 0  4 0 0  4.25 0 0  4.5 0 0  4.75 0 0  5 0 0  5.25 0 0  5.5 0 0  5.75 0 0  6 0 0  6.25 0 0  6.5 0 0  6.75 0 0  7 0 0  7.25 0 0  7.5 0 0  7.75 0 0  8 0 0  8.25 0 0  8.5 0 0  8.75 0 0  9 0 0  9.25 0 0  9.5 0 0  9.75 0 0  10 0 0  10.25 0 0  10.5 0 0  10.75 0 0  11 0 0  11.25 0 0  11.5 0 0  11.75 0 0  12 0 0  12.25 0 0  12.5 0 0  12.75 0 0  13 0 0  13.25 0 0  13.5 0 0  13.75 0 0  14 0 0  14.25 0 0  14.5 0 0  14.75 0 0  15 0 0  15.25 0 0  15.5 0 0  15.75 0 0  16 0 0  16.25 0 0  16.5 0 0  16.75 0 0  17 0 0  17.25 0 0  17.5 0 0  17.75 0 0  18 0 0  18.25 0 0  18.5 0 0  18.75 0 0  19 0 0  19.25 0 0  19.5 0 0  19.75 0 0  20 0 0  20.25 0 0  20.5 0 0  20.75 0 0  21 0 0  21.25 0 0  21.5 0 0  21.75 0 0  22 0 0  22.25 0 0  22.5 0 0  22.75 0 0  23 0 0  23.25 0 0  23.5 0 0  23.75 0 0  24 0 0  24.25 0 0  24.5 0 0  24.75 0 0  25 0 0  0 0.25 0  0.25 0.25 0  0.5 0.25 0  0.75 0.25 0  1 0.25 0  1.25 0.25 0  1.5 0.25 0  1.75 0.25 0  2 0.25 0  2.25 0.25 0  2.5 0.25 0  2.75 0.25 0  3 0.25 0  3.25 0.25 0  3.5 0.25 0  3.75 0.25 0  4 0.25 0  4.25 0.25 0  4.5 0.25 0  4.75 0.25 0  5 0.25 0  5.25 0.25 0  5.5 0.25 0  5.75 0.25 0  6 0.25 0  6.25 0.25 0  6.5 0.25 0  6.75 0.25 0  7 0.25 0  7.25 0.25 0  7.5 0.25 0  7.75 0.25 0  8 0.25 0  8.25 0.25 0  8.5 0.25 0  8.75 0.25 0  9 0.25 0  9.25 0.25 0  9.5 0.25 0  9.75 0.25 0  10 0.25 0  10.25 0.25 0  10.5 0.25 0  10.75 0.25 0  11 0.25 0  11.25 0.25 0  11.5 0.25 0  11.75 0.25 0  12 0.25 0  12.25 0.25 0  12.5 0.25 0  12.75 0.25 0  13 0.25 0  13.25 0.25 0  13.5 0.25 0  13.75 0.25 0  14 0.25 0  14.25 0.25 0  14.5 0.25 0  14.75 0.25 0  15 0.25 0  15.25 0.25 0  15.5 0.25 0  15.75 0.25 0  16 0.25 0  16.25 0.25 0  16.5 0.25 0  16.75 0.25 0  17 0.25 0  17.25 0.25 0  17.5 0.25 0  17.75 0.25 0  18 0.25 0  18.25 0.25 0  18.5 0.25 0  18.75 0.25 0  19 0.25 0  19.25 0.25 0  19.5 0.25 0  19.75 0.25 0  20 0.25 0  20.25 0.25 0  20.5 0.25 0  20.75 0.25 0  21 0.25 0  21.25 0.25 0  21.5 0.25 0  21.75 0.25 0  22 0.25 0  22.25 0.25 0  22.5 0.25 0  22.75 0.25 0  23 0.25 0  23.25 0.25 0  23.5 0.25 0  23.75 0.25 0  24 0.25 0  24.25 0.25 0  24.5 0.25 0  24.75 0.25 0  25 0.25 0  0 0.5 0  0.25 0.5 0  0.5 0.5 0  0.75 0.5 0  1 0.5 0  1.25 0.5 0  1.5 0.5 0  1.75 0.5 0  2 0.5 0  2.25 0.5 0  2.5 0.5 0  2.75 0.5 0  3 0.5 0  3.25 0.5 0  3.5 0.5 0  3.75 0.5 0  4 0.5 0  4.25 0.5 0  4.5 0.5 0  4.75 0.5 0  5 0.5 0  5.25 0.5 0  5.5 0.5 0  5.75 0.5 0  6 0.5 0  6.25 0.5 0  6.5 0.5 0  6.75 0.5 0  7 0.5 0  7.25 0.5 0  7.5 0.5 0  7.75 0.5 0  8 0.5 0  8.25 0.5 0  8.5 0.5 0  8.75 0.5 0  9 0.5 0  9.25 0.5 0  9.5 0.5 0  9.75 0.5 0  10 0.5 0  10.25 0.5 0  10.5 0.5 0  10.75 0.5 0  11 0.5 0  11.25 0.5 0  11.5 0.5 0  11.75 0.5 0  12 0.5 0  12.25 0.5 0  12.5 0.5 0  12.75 0.5 0  13 0.5 0  13.25 0.5 0  13.5 0.5 0  13.75 0.5 0  14 0.5 0  14.25 0.5 0  14.5 0.5 0  14.75 0.5 0  15 0.5 0  15.25 0.5 0  15.5 0.5 0  15.75 0.5 0  16 0.5 0  16.25 0.5 0  16.5 0.5 0  16.75 0.5 0  17 0.5 0  17.25 0.5 0  17.5 0.5 0  17.75 0.5 0  18 0.5 0  18.25 0.5 0  18.5 0.5 0  18.75 0.5 0  19 0.5 0  19.25 0.5 0  19.5 0.5 0  19.75 0.5 0  20 0.5 0  20.25 0.5 0  20.5 0.5 0  20.75 0.5 0  21 0.5 0  21.25 0.5 0  21.5 0.5 0  21.75 0.5 0  22 0.5 0  22.25 0.5 0  22.5 0.5 0  22.75 0.5 0  23 0.5 0  23.25 0.5 0  23.5 0.5 0  23.75 0.5 0  24 0.5 0  24.25 0.5 0  24.5 0.5 0  24.75 0.5 0  25 0.5 0  0 0.75 0  0.25 0.75 0  0.5 0.75 0  0.75 0.75 0  1 0.75 0  1.25 0.75 0  1.5 0.75 0  1.75 0.75 0  2 0.75 0  2.25 0.75 0  2.5 0.75 0  2.75 0.75 0  3 0.75 0  3.25 0.75 0  3.5 0.75 0  3.75 0.75 0  4 0.75 0  4.25 0.75 0  4.5 0.75 0  4.75 0.75 0  5 0.75 0  5.25 0.75 0  5.5 0.75 0  5.75 0.75 0  6 0.75 0  6.25 0.75 0  6.5 0.75 0  6.75 0.75 0  7 0.75 0  7.25 0.75 0  7.5 0.75 0  7.75 0.75 0  8 0.75 0  8.25 0.75 0  8.5 0.75 0  8.75 0.75 0  9 0.75 0  9.25 0.75 0  9.5 0.75 0  9.75 0.75 0  10 0.75 0  10.25 0.75 0  10.5 0.75 0  10.75 0.75 0  11 0.75 0  11.25 0.75 0  11.5 0.75 0  11.75 0.75 0  12 0.75 0  12.25 0.75 0  12.5 0.75 0  12.75 0.75 0  13 0.75 0  13.25 0.75 0  13.5 0.75 0  13.75 0.75 0  14 0.75 0  14.25 0.75 0  14.5 0.75 0  14.75 0.75 0  15 0.75 0  15.25 0.75 0  15.5 0.75 0  15.75 0.75 0  16 0.75 0  16.25 0.75 0  16.5 0.75 0  16.75 0.75 0  17 0.75 0  17.25 0.75 0  17.5 0.75 0  17.75 0.75 0  18 0.75 0  18.25 0.75 0  18.5 0.75 0  18.75 0.75 0  19 0.75 0  19.25 0.75 0  19.5 0.75 0  19.75 0.75 0  20 0.75 0  20.25 0.75 0  20.5 0.75 0  20.75 0.75 0  21 0.75 0  21.25 0.75 0  21.5 0.75 0  21.75 0.75 0  22 0.75 0  22.25 0.75 0  22.5 0.75 0  22.75 0.75 0  23 0.75 0  23.25 0.75 0  23.5 0.75 0  23.75 0.75 0  24 0.75 0  24.25 0.75 0  24.5 0.75 0  24.75 0.75 0  25 0.75 0  0 1 0  0.25 1 0  0.5 1 0  0.75 1 0  1 1 0  1.25 1 0  1.5 1 0  1.75 1 0  2 1 0  2.25 1 0  2.5 1 0  2.75 1 0  3 1 0  3.25 1 0  3.5 1 0  3.75 1 0  4 1 0  4.25 1 0  4.5 1 0  4.75 1 0  5 1 0  5.25 1 0  5.5 1 0  5.75 1 0  6 1 0  6.25 1 0  6.5 1 0  6.75 1 0  7 1 0  7.25 1 0  7.5 1 0  7.75 1 0  8 1 0  8.25 1 0  8.5 1 0  8.75 1 0  9 1 0  9.25 1 0  9.5 1 0  9.75 1 0  10 1 0  10.25 1 0  10.5 1 0  10.75 1 0  11 1 0  11.25 1 0  11.5 1 0  11.75 1 0  12 1 0  12.25 1 0  12.5 1 0  12.75 1 0  13 1 0  13.25 1 0  13.5 1 0  13.75 1 0  14 1 0  14.25 1 0  14.5 1 0  14.75 1 0  15 1 0  15.25 1 0  15.5 1 0  15.75 1 0  16 1 0  16.25 1 0  16.5 1 0  16.75 1 0  17 1 0  17.25 1 0  17.5 1 0  17.75 1 0  18 1 0  18.25 1 0  18.5 1 0  18.75 1 0  19 1 0  19.25 1 0  19.5 1 0  19.75 1 0  20 1 0  20.25 1 0  20.5 1 0  20.75 1 0  21 1 0  21.25 1 0  21.5 1 0  21.75 1 0  22 1 0  22.25 1 0  22.5 1 0  22.75 1 0  23 1 0  23.25 1 0  23.5 1 0  23.75 1 0  24 1 0  24.25 1 0  24.5 1 0  24.75 1 0  25 1 0  0 1.25 0  0.25 1.25 0  0.5 1.25 0  0.75 1.25 0  1 1.25 0  1.25 1.25 0  1.5 1.25 0  1.75 1.25 0  2 1.25 0  2.25 1.25 0  2.5 1.25 0  2.75 1.25 0  3 1.25 0  3.25 1.25 0  3.5 1.25 0  3.75 1.25 0  4 1.25 0  4.25 1.25 0  4.5 1.25 0  4.75 1.25 0  5 1.25 0  5.25 1.25 0  5.5 1.25 0  5.75 1.25 0  6 1.25 0  6.25 1.25 0  6.5 1.25 0  6.75 1.25 0  7 1.25 0  7.25 1.25 0  7.5 1.25 0  7.75 1.25 0  8 1.25 0  8.25 1.25 0  8.5 1.25 0  8.75 1.25 0  9 1.25 0  9.25 1.25 0  9.5 1.25 0  9.75 1.25 0  10 1.25 0  10.25 1.25 0  10.5 1.25 0  10.75 1.25 0  11 1.25 0  11.25 1.25 0  11.5 1.25 0  11.75 1.25 0  12 1.25 0  12.25 1.25 0  12.5 1.25 0  12.75 1.25 0  13 1.25 0  13.25 1.25 0  13.5 1.25 0  13.75 1.25 0  14 1.25 0  14.25 1.25 0  14.5 1.25 0  14.75 1.25 0  15 1.25 0  15.25 1.25 0  15.5 1.25 0  15.75 1.25 0  16 1.25 0  16.25 1.25 0  16.5 1.25 0  16.75 1.25 0  17 1.25 0  17.25 1.25 0  17.5 1.25 0  17.75 1.25 0  18 1.25 0  18.25 1.25 0  18.5 1.25 0  18.75 1.25 0  19 1.25 0  19.25 1.25 0  19.5 1.25 0  19.75 1.25 0  20 1.25 0  20.25 1.25 0  20.5 1.25 0  20.75 1.25 0  21 1.25 0  21.25 1.25 0  21.5 1.25 0  21.75 1.25 0  22 1.25 0  22.25 1.25 0  22.5 1.25 0  22.75 1.25 0  23 1.25 0  23.25 1.25 0  23.5 1.25 0  23.75 1.25 0  24 1.25 0  24.25 1.25 0  24.5 1.25 0  24.75 1.25 0  25 1.25 0  0 1.5 0  0.25 1.5 0  0.5 1.5 0  0.75 1.5 0  1 1.5 0  1.25 1.5 0  1.5 1.5 0  1.75 1.5 0  2 1.5 0  2.25 1.5 0  2.5 1.5 0  2.75 1.5 0  3 1.5 0  3.25 1.5 0  3.5 1.5 0  3.75 1.5 0  4 1.5 0  4.25 1.5 0  4.5 1.5 0  4.75 1.5 0  5 1.5 0  5.25 1.5 0  5.5 1.5 0  5.75 1.5 0  6 1.5 0  6.25 1.5 0  6.5 1.5 0  6.75 1.5 0  7 1.5 0  7.25 1.5 0  7.5 1.5 0  7.75 1.5 0  8 1.5 0  8.25 1.5 0  8.5 1.5 0  8.75 1.5 0  9 1.5 0  9.25 1.5 0  9.5 1.5 0  9.75 1.5 0  10 1.5 0  10.25 1.5 0  10.5 1.5 0  10.75 1.5 0  11 1.5 0  11.25 1.5 0  11.5 1.5 0  11.75 1.5 0  12 1.5 0  12.25 1.5 0  12.5 1.5 0  12.75 1.5 0  13 1.5 0  13.25 1.5 0  13.5 1.5 0  13.75 1.5 0  14 1.5 0  14.25 1.5 0  14.5 1.5 0  14.75 1.5 0  15 1.5 0  15.25 1.5 0  15.5 1.5 0  15.75 1.5 0  16 1.5 0  16.25 1.5 0  16.5 1.5 0  16.75 1.5 0  17 1.5 0  17.25 1.5 0  17.5 1.5 0  17.75 1.5 0  18 1.5 0  18.25 1.5 0  18.5 1.5 0  18.75 1.5 0  19 1.5 0  19.25 1.5 0  19.5 1.5 0  19.75 1.5 0  20 1.5 0  20.25 1.5 0  20.5 1.5 0  20.75 1.5 0  21 1.5 0  21.25 1.5 0  21.5 1.5 0  21.75 1.5 0  22 1.5 0  22.25 1.5 0  22.5 1.5 0  22.75 1.5 0  23 1.5 0  23.25 1.5 0  23.5 1.5 0  23.75 1.5 0  24 1.5 0  24.25 1.5 0  24.5 1.5 0  24.75 1.5 0  25 1.5 0  0 1.75 0  0.25 1.75 0  0.5 1.75 0  0.75 1.75 0  1 1.75 0  1.25 1.75 0  1.5 1.75 0  1.75 1.75 0  2 1.75 0  2.25 1.75 0  2.5 1.75 0  2.75 1.75 0  3 1.75 0  3.25 1.75 0  3.5 1.75 0  3.75 1.75 0  4 1.75 0  4.25 1.75 0  4.5 1.75 0  4.75 1.75 0  5 1.75 0  5.25 1.75 0  5.5 1.75 0  5.75 1.75 0  6 1.75 0  6.25 1.75 0  6.5 1.75 0  6.75 1.75 0  7 1.75 0  7.25 1.75 0  7.5 1.75 0  7.75 1.75 0  8 1.75 0  8.25 1.75 0  8.5 1.75 0  8.75 1.75 0  9 1.75 0  9.25 1.75 0  9.5 1.75 0  9.75 1.75 0  10 1.75 0  10.25 1.75 0  10.5 1.75 0  10.75 1.75 0  11 1.75 0  11.25 1.75 0  11.5 1.75 0  11.75 1.75 0  12 1.75 0  12.25 1.75 0  12.5 1.75 0  12.75 1.75 0  13 1.75 0  13.25 1.75 0  13.5 1.75 0  13.75 1.75 0  14 1.75 0  14.25 1.75 0  14.5 1.75 0  14.75 1.75 0  15 1.75 0  15.25 1.75 0  15.5 1.75 0  15.75 1.75 0  16 1.75 0  16.25 1.75 0  16.5 1.75 0  16.75 1.75 0  17 1.75 0  17.25 1.75 0  17.5 1.75 0  17.75 1.75 0  18 1.75 0  18.25 1.75 0  18.5 1.75 0  18.75 1.75 0  19 1.75 0  19.25 1.75 0  19.5 1.75 0  19.75 1.75 0  20 1.75 0  20.25 1.75 0  20.5 1.75 0  20.75 1.75 0  21 1.75 0  21.25 1.75 0  21.5 1.75 0  21.75 1.75 0  22 1.75 0  22.25 1.75 0  22.5 1.75 0  22.75 1.75 0  23 1.75 0  23.25 1.75 0  23.5 1.75 0  23.75 1.75 0  24 1.75 0  24.25 1.75 0  24.5 1.75 0  24.75 1.75 0  25 1.75 0  0 2 0  0.25 2 0  0.5 2 0  0.75 2 0  1 2 0  1.25 2 0  1.5 2 0  1.75 2 0  2 2 0  2.25 2 0  2.5 2 0  2.75 2 0  3 2 0  3.25 2 0  3.5 2 0  3.75 2 0  4 2 0  4.25 2 0  4.5 2 0  4.75 2 0  5 2 0  5.25 2 0  5.5 2 0  5.75 2 0  6 2 0  6.25 2 0  6.5 2 0  6.75 2 0  7 2 0  7.25 2 0  7.5 2 0  7.75 2 0  8 2 0  8.25 2 0  8.5 2 0  8.75 2 0  9 2 0  9.25 2 0  9.5 2 0  9.75 2 0  10 2 0  10.25 2 0  10.5 2 0  10.75 2 0  11 2 0  11.25 2 0 
[...]
<PointData  Scalars="f_26"> 
<DataArray  type="Float64"  Name="f_26"  format="ascii">2.3203186914022435e-05  2.3213509821854478e-05  2.3237595865857623e-05  2.3274976228644155e-05  2.3323860078452286e-05  2.3381796050962516e-05  2.3446028204275963e-05  2.3513773595813022e-05  2.3582448364842441e-05  2.3649832948470031e-05  2.3714168828296260e-05  2.3774189307480654e-05  2.3829096096567249e-05  2.3878498678718271e-05  2.3922334103232638e-05  2.3960782168663643e-05  2.3994186602784068e-05  2.4022988324100380e-05  2.4047673120239833e-05  2.4068733472451270e-05  2.4086642757041642e-05  2.4101839423077043e-05  2.4114718689759695e-05  2.4125629571972788e-05  2.4134875443350614e-05  2.4142716766662028e-05  2.4149374999302124e-05  2.4155036991917401e-05  2.4159859436986618e-05  2.4163973098887994e-05  2.4167486679201860e-05  2.4170490252797784e-05  2.4173058262362363e-05  2.4175252090169209e-05  2.4177122242780571e-05  2.4178710191932204e-05  2.4180049916590303e-05  2.4181169189488928e-05  2.4182090647962091e-05  2.4182832684607369e-05  2.4183410188891583e-05  2.4183835166597824e-05  2.4184117260203630e-05  2.4184264189943272e-05  2.4184282132441532e-05  2.4184176051364998e-05  2.4183949992446300e-05  2.4183607353407275e-05  2.4183151137640132e-05  2.4182584198900633e-05  2.4181909482623477e-05  2.4181130267695835e-05  2.4180250410542388e-05  2.4179274591131646e-05  2.4178208557992570e-05  2.4177059366566783e-05  2.4175835602312744e-05  2.4174547577096838e-05  2.4173207484804695e-05  2.4171829500109910e-05  2.4170429803327105e-05  2.4169026514648365e-05  2.4167639523174903e-05  2.4166290200258831e-05  2.4165000992828910e-05  2.4163794900400283e-05  2.4162694848874629e-05  2.4161722984232406e-05  2.4160899918759092e-05  2.4160243970344912e-05  2.4159770440482723e-05  2.4159490977899592e-05  2.4159413071724388e-05  2.4159539710678391e-05  2.4159869233530898e-05  2.4160395382086791e-05  2.4161107552771706e-05  2.4161991228137908e-05  2.4163028556941302e-05  2.4164199042132722e-05  2.4165480290967448e-05  2.4166848780690422e-05  2.4168280596566595e-05  2.4169752105609710e-05  2.4171240538146201e-05  2.4172724459163078e-05  2.4174184121130783e-05  2.4175601698767848e-05  2.4176961413402632e-05  2.4178249559860371e-05  2.4179454452096875e-05  2.4180566305247507e-05  2.4181577071608893e-05  2.4182480246562871e-05  2.4183270657629689e-05  2.4183944245039294e-05  2.4184497832360284e-05  2.4184928858475284e-05  2.4185234945870969e-05  2.4185412783641788e-05  2.4185454011062391e-05  2.3212903253651396e-05  2.3221234675310499e-05  2.3244563538337458e-05  2.3281400536602925e-05  2.3329745561410281e-05  2.3387116563860369e-05  2.3450768311551527e-05  2.3517936880010565e-05  2.3586056407481317e-05  2.3652921376169069e-05  2.3716782668715788e-05  2.3776378647903749e-05  2.3830912491457297e-05  2.3879992444906532e-05  2.3923552465291259e-05  2.3961768130287004e-05  2.3994978390943584e-05  2.4023619256159735e-05  2.4048171762960501e-05  2.4069123985891957e-05  2.4086945340610425e-05  2.4102070802995507e-05  2.4114892605892699e-05  2.4125757237041212e-05  2.4134965959079461e-05  2.4142777489789449e-05  2.4149411856096633e-05  2.4155054743478026e-05  2.4159861899664961e-05  2.4163963325132065e-05  2.4167467104350141e-05  2.4170462813128927e-05  2.4173024489232488e-05  2.4175213184481490e-05  2.4177079133418347e-05  2.4178663581199316e-05  2.4180000315169236e-05  2.4181116942960952e-05  2.4182035956537369e-05  2.4182775617384900e-05  2.4183350693703974e-05  2.4183773076289218e-05  2.4184052296034898e-05  2.4184195962712716e-05  2.4184210141847202e-05  2.4184099684113507e-05  2.4183868519629448e-05  2.4183519927718245e-05  2.4183056791081734e-05  2.4182481841742426e-05  2.4181797904484415e-05  2.4181008141751732e-05  2.4180116301966490e-05  2.4179126970950393e-05  2.4178045823551125e-05  2.4176879869720137e-05  2.4175637686257394e-05  2.4174329622406575e-05  2.4172967964711641e-05  2.4171567044372838e-05  2.4170143269169549e-05  2.4168715062273512e-05  2.4167302692349322e-05  2.4165927983511333e-05  2.4164613900066796e-05  2.4163384009346794e-05  2.4162261835811151e-05  2.4161270130183733e-05  2.4160430087524709e-05  2.4159760556606477e-05  2.4159277288469984e-05  2.4158992273552989e-05  2.4158913213673665e-05  2.4159043167365966e-05  2.4159380395179921e-05  2.4159918416756990e-05  2.4160646275382215e-05  2.4161548990113028e-05  2.4162608162216896e-05  2.4163802692900408e-05  2.4165109564026685e-05  2.4166504632915538e-05  2.4167963396018913e-05  2.4169461683397281e-05  2.4170976255327928e-05  2.4172485282794955e-05  2.4173968703875670e-05  2.4175408457207905e-05  2.4176788601159075e-05  2.4178095332699001e-05  2.4179316923264921e-05  2.4180443590272881e-05  2.4181467322677440e-05  2.4182381677451997e-05  2.4183181561345963e-05  2.4183863008962008e-05  2.4184422964411309e-05  2.4184859072122789e-05  2.4185169500898275e-05  2.4185352974185673e-05  2.4185410090475388e-05  2.3235272826590665e-05  2.3242851604356575e-05  2.3265159235364835e-05  2.3300768871729248e-05  2.3347679968530926e-05  2.3403449043574252e-05  2.3465394624945741e-05  2.3530823698259990e-05  2.3597236520497762e-05  2.3662481989372596e-05  2.3724850542610082e-05  2.3783104889452974e-05  2.3836458927325650e-05  2.3884520662306377e-05  2.3927215884735896e-05  2.3964706952885222e-05  2.3997316959346750e-05  2.4025465250371694e-05  2.4049616663269059e-05  2.4070244318012221e-05  2.4087804328160145e-05  2.4102720161105091e-05  2.4115374302411147e-05  2.4126105119434342e-05  2.4135207196368087e-05  2.4142933813010262e-05  2.4149500601796170e-05  2.4155089716420587e-05  2.4159854076325400e-05  2.4163921420976251e-05  2.4167398027025152e-05  2.4170372021596885e-05  2.4172916276290645e-05  2.4175090897439506e-05  2.4176945345185972e-05  2.4178520221788490e-05  2.4179848771674909e-05  2.4180958134455031e-05  2.4181870388968745e-05  2.4182603422495958e-05  2.4183171655119120e-05  2.4183586645274980e-05  2.4183857598950034e-05  2.4183991801840256e-05  2.4183994991113524e-05  2.4183871681140062e-05  2.4183625455620193e-05  2.4183259236850416e-05  2.4182775541326247e-05  2.4182176729375647e-05  2.4181465254939600e-05  2.4180643919859476e-05  2.4179716134998568e-05  2.4178686188144426e-05  2.4177559515873109e-05  2.4176342973424323e-05  2.4175045093228988e-05  2.4173676319229438e-05  2.4172249200821242e-05  2.4170778527509184e-05  2.4169281383678631e-05  2.4167777102750863e-05  2.4166287101910668e-05  2.4164834582950181e-05  2.4163444091736951e-05  2.4162140938246991e-05  2.4160950490478492e-05  2.4159897367941613e-05  2.4159004572504082e-05  2.4158292604631224e-05  2.4157778619941880e-05  2.4157475683194795e-05  2.4157392173507156e-05  2.4157531385670315e-05  2.4157891358543795e-05  2.4158464944096371e-05  2.4159240111692438e-05  2.4160200463905887e-05  2.4161325924585627e-05  2.4162593548758290e-05  2.4163978398216346e-05  2.4165454426503564e-05  2.4166995321933666e-05  2.4168575266145456e-05  2.4170169577055428e-05  2.4171755217384292e-05  2.4173311161822546e-05  2.4174818626284425e-05  2.4176261170889494e-05  2.4177624694007429e-05  2.4178897337942925e-05  2.4180069327913208e-05  2.4181132765326349e-05  2.4182081394532475e-05  2.4182910359788844e-05  2.4183615966964194e-05  2.4184195464133612e-05  2.4184646860995446e-05  2.4184968830715676e-05  2.4185160803763994e-05  2.4185223457075275e-05  2.3270056236519096e-05  2.3277093383045096e-05  2.3298170448933474e-05  2.3332009030402571e-05  2.3376715425003013e-05  2.3429959222272886e-05  2.3489182341134133e-05  2.3551815329811107e-05  2.3615470630840567e-05  2.3678089324902468e-05  2.3738029507234450e-05  2.3794096413694577e-05  2.3845523753703520e-05  2.3891920884387489e-05  2.3933201439523610e-05  2.3969506889602229e-05  2.4001134769660244e-05  2.4028477316521361e-05  2.4051972877049602e-05  2.4072070050893891e-05  2.4089203113663247e-05  2.4103776633555625e-05  2.4116157094055267e-05  2.4126669540588759e-05  2.4135597611214816e-05  2.4143185682156776e-05  2.4149642198663983e-05  2.4155143544380617e-05  2.4159838022599421e-05  2.4163849685686836e-05  2.4167281864234265e-05  2.4170220325615852e-05  2.4172736042166034e-05  2.4174887580030001e-05  2.4176723137033530e-05  2.4178282266237830e-05  2.4179597324472359e-05  2.4180694684356293e-05  2.4181595745666602e-05  2.4182317778391620e-05  2.4182874626051569e-05  2.4183277294243271e-05  2.4183534446073540e-05  2.4183652823269183e-05  2.4183637609302367e-05  2.4183492748811309e-05  2.4183221235859722e-05  2.4182825382074702e-05  2.4182307074326534e-05  2.4181668030248775e-05  2.4180910058418722e-05  2.4180035328300407e-05  2.4179046652974225e-05  2.4177947785137481e-05  2.4176743723792828e-05  2.4175441025439711e-05  2.4174048109525145e-05  2.4172575543581667e-05  2.4171036289202467e-05  2.4169445886235451e-05  2.4167822549907822e-05  2.4166187154694397e-05  2.4164563080298701e-05  2.4162975899704574e-05  2.4161452897211895e-05  2.4160022415640334e-05  2.4158713045908700e-05  2.4157552687849875e-05  2.4156567526755670e-05  2.4155780983753405e-05  2.4155212707602791e-05  2.4154877679043432e-05  2.4154785495235143e-05  2.4154939890866975e-05  2.4155338535004024e-05  2.4155973120559568e-05  2.4156829739054883e-05  2.4157889510027378e-05  2.4159129414874779e-05  2.4160523271259584e-05  2.4162042777675936e-05  2.4163658558552684e-05  2.4165341147488419e-05  2.4167061858292134e-05  2.4168793508441226e-05  2.4170510975327274e-05  2.4172191580460780e-05  2.4173815309330937e-05  2.4175364884092896e-05  2.4176825712435445e-05  2.4178185739052209e-05  2.4179435226587659e-05  2.4180566491417989e-05  2.4181573616891783e-05  2.4182452163466615e-05  2.4183198892389729e-05  2.4183811518280166e-05  2.4184288507593657e-05  2.4184628944902829e-05  2.4184832487819258e-05  2.4184899369135380e-05  2.3315790474584145e-05  2.3322283910119838e-05  2.3341913377792913e-05  2.3373534116472857e-05  2.3415401672238773e-05  2.3465350273706202e-05  2.3520995080688128e-05  2.3579935917059794e-05  2.3639937373991455e-05  2.3699065417920861e-05  2.3755770301736766e-05  2.3808915987869731e-05  2.3857764603388645e-05  2.3901929138747847e-05  2.3941308566553849e-05  2.3976017715115235e-05  2.4006320912302212e-05  2.4032574819101273e-05  2.4055182790363567e-05  2.4074560880645998e-05  2.4091114272656737e-05  2.4105222280934982e-05  2.4117229952985604e-05  2.4127444450480686e-05  2.4136134689789504e-05  2.4143533052717119e-05  2.4149838287668622e-05  2.4155218982326706e-05  2.4159817194417733e-05  2.4163751980749766e-05  2.4167122674521018e-05  2.4170011836156083e-05  2.4172487852239480e-05  2.4174607187722728e-05  2.4176416314188303e-05  2.4177953345854170e-05  2.4179249418309641e-05  2.4180329844873409e-05  2.4181215083449485e-05  2.4181921543810206e-05  2.4182462261983093e-05  2.4182847465237742e-05  2.4183085048268194e-05  2.4183180978642082e-05  2.4183139647461389e-05  2.4182964179422795e-05  2.4182656715015233e-05  2.4182218676359762e-05  2.4181651027072181e-05  2.4180954535383717e-05  2.4180130048444994e-05  2.4179178784108008e-05  2.4178102644371187e-05  2.4176904551936338e-05  2.4175588807849271e-05  2.4174161463925444e-05  2.4172630698645374e-05  2.4171007179627101e-05  2.4169304390007356e-05  2.4167538890651864e-05  2.4165730485831668e-05  2.4163902257767148e-05  2.4162080436240927e-05  2.4160294074217610e-05  2.4158574509703457e-05  2.4156954608054124e-05  2.4155467797018626e-05  2.4154146927603659e-05  2.4153023015172932e-05  2.4152123934284918e-05  2.4151473154629907e-05  2.4151088611368161e-05  2.4150981799368229e-05  2.4151157166797900e-05  2.4151611860301208e-05  2.4152335844187972e-05  2.4153312383384311e-05  2.4154518848558270e-05  2.4155927775812788e-05  2.4157508095665963e-05  2.4159226438347477e-05  2.4161048424789485e-05  2.4162939863714186e-05  2.4164867792524659e-05  2.4166801320396341e-05  2.4168712253181540e-05  2.4170575499075668e-05  2.4172369269769458e-05  2.4174075103149248e-05  2.4175677740370130e-05  2.4177164892750844e-05  2.4178526933232749e-05  2.4179756544086838e-05  2.4180848348139942e-05  2.4181798545936113e-05  2.4182604576719660e-05  2.4183264817446568e-05  2.4183778331086887e-05  2.4184144671165673e-05  2.4184363736342845e-05  2.4184435630713269e-05  2.3370401875916806e-05  2.3376316653897450e-05  2.3394313924624892e-05  2.3423373432176430e-05  2.3461919528333370e-05  2.3507983370294506e-05  2.3559389039958447e-05  2.3613940158029979e-05  2.3669584308174284e-05  2.3724537970074472e-05  2.3777363166583021e-05  2.3826996063281811e-05  2.3872734997675357e-05  2.3914199556264595e-05  2.3951273243449261e-05  2.3984040759808088e-05  2.4012728055250378e-05  2.4037650179827197e-05  2.4059169219293229e-05  2.4077662595892145e-05  2.4093500771435347e-05  2.4107032780697724e-05  2.4118577862403180e-05  2.4128421565769062e-05  2.4136814955168582e-05  2.4143975821464105e-05  2.4150091081950271e-05  2.4155319785491397e-05  2.4159796326994597e-05  2.4163633617452629e-05  2.4166926058717989e-05  2.4169752243693377e-05  2.4172177350237166e-05  2.4174255227232313e-05  2.4176030189122727e-05  2.4177538544729024e-05  2.4178809890216694e-05  2.4179868196769184e-05  2.4180732722243498e-05  2.4181418773813015e-05  2.4181938345951255e-05  2.4182300655463646e-05  2.4182512592852431e-05  2.4182579107212267e-05  2.4182503540135518e-05  2.4182287922739277e-05  2.4181933248855129e-05  2.4181439736560690e-05  2.4180807089463298e-05  2.4180034768327891e-05  2.4179122282601369e-05  2.4178069509928922e-05  2.4176877049670062e-05  2.4175546613487988e-05  2.4174081452114319e-05  2.4172486812253704e-05  2.4170770411275737e-05  2.4168942910006506e-05  2.4167018355979616e-05  2.4165014561626441e-05  2.4162953375078834e-05  2.4160860796802506e-05  2.4158766894622240e-05  2.4156705474257415e-05  2.4154713473361771e-05  2.4152830064709640e-05  2.4151095478072598e-05  2.4149549578764837e-05  2.4148230270849883e-05  2.4147171820651746e-05  2.4146403217102701e-05  2.4145946695505940e-05  2.4145816547592847e-05  2.4146018322338999e-05  2.4146548490251057e-05  2.4147394602430332e-05  2.4148535930080130e-05  2.4149944526445560e-05  2.4151586617275527e-05  2.4153424202165393e-05  2.4155416739822723e-05  2.4157522795274779e-05  2.4159701544079238e-05  2.4161914054024603e-05  2.4164124294300341e-05  2.4166299851540924e-05  2.4168412358162874e-05  2.4170437658822575e-05  2.4172355754644146e-05  2.4174150572181598e-05  2.4175809605747977e-05  2.4177323479075471e-05  2.4178685466725361e-05  2.4179891008624416e-05  2.4180937243711100e-05  2.4181822581743122e-05  2.4182546326221658e-05  2.4183108355848659e-05  2.4183508865652935e-05  2.4183748159525796e-05  2.4183826472897439e-05  2.3431507415641717e-05  2.3436818490924113e-05  2.3453058505045346e-05  2.3479329241576693e-05  2.3514233568587250e-05  2.3556017581333314e-05  2.3602735925997017e-05  2.3652418029906856e-05  2.3703214815606363e-05  2.3753510750293768e-05  2.3801993592205193e-05  2.3847681966889204e-05  2.3889917112453628e-05  2.3928328727086400e-05  2.3962785735872029e-05  2.3993341586834653e-05  2.4020181315597031e-05  2.4043574950403371e-05  2.4063839463376982e-05  2.4081309701095869e-05  2.4096317596436168e-05  2.4109178379511912e-05  2.4120182318217841e-05  2.4129590579883898e-05  2.4137633995886768e-05  2.4144513748300738e-05  2.4150403231870346e-05  2.4155450550132293e-05  2.4159781271814553e-05  2.4163501202463605e-05  2.4166699021042396e-05  2.4169448698189638e-05  2.4171811658211744e-05  2.4173838676256505e-05  2.4175571520055231e-05  2.4177044355665583e-05  2.4178284941453192e-05  2.4179315636034287e-05  2.4180154245411923e-05  2.4180814732994586e-05  2.4181307814196351e-05  2.4181641455268752e-05  2.4181821294138215e-05  2.4181850999443512e-05  2.4181732582735893e-05  2.4181466677916137e-05  2.4181052801392413e-05  2.4180489606066968e-05  2.4179775141977955e-05  2.4178907136074138e-05  2.4177883302979905e-05  2.4176701697467106e-05  2.4175361117399260e-05  2.4173861562839572e-05  2.4172204752510114e-05  2.4170394692603667e-05  2.4168438284958402e-05  2.4166345951901724e-05  2.4164132244066739e-05  2.4161816386010969e-05  2.4159422703827707e-05  2.4156980870907799e-05  2.4154525904704804e-05  2.4152097850989523e-05  2.4149741104545257e-05  2.4147503337617026e-05  2.4145434039384054e-05  2.4143582709185231e-05  2.4141996789173407e-05  2.4140719462833842e-05  2.4139787477805356e-05  2.4139229168385681e-05  2.4139062850306404e-05  2.4139295735995951e-05  2.4139923474362451e-05  2.4140930360442761e-05  2.4142290195129476e-05  2.4143967712886897e-05  2.4145920444612859e-05  2.4148100850089733e-05  2.4150458542971166e-05  2.4152942440512439e-05  2.4155502696651089e-05  2.4158092314849844e-05  2.4160668379804566e-05  2.4163192888620307e-05  2.4165633197654662e-05  2.4167962128026701e-05  2.4170157789746889e-05  2.4172203192036850e-05  2.4174085707235172e-05  2.4175796449824299e-05  2.4177329622751985e-05  2.4178681872311877e-05  2.4179851681916659e-05  2.4180838825154392e-05  2.4181643890035912e-05  2.4182267879265485e-05  2.4182711885243388e-05  2.4182976833069494e-05  2.4183063281812636e-05  2.3496643239813695e-05  2.3501345065685560e-05  2.3515771991245477e-05  2.3539145986770439e-05  2.3570250907203359e-05  2.3607554262468627e-05  2.3649350160119836e-05  2.3693903699034375e-05  2.3739578979325235e-05  2.3784937643870307e-05  2.3828801324993976e-05  2.3870277934939529e-05  2.3908756971127333e-05  2.3943882084394253e-05  2.3975510001400862e-05  2.4003663990863743e-05  2.4028488159592357e-05  2.4050206664466056e-05  2.4069089932127425e-05  2.4085428447167864e-05  2.4099513660992573e-05  2.4111625023801172e-05  2.4122021935190511e-05  2.4130939424326366e-05  2.4138586508451345e-05  2.4145146367047795e-05  2.4150777663103693e-05  2.4155616518079049e-05  2.4159778792864433e-05  2.4163362441366198e-05  2.4166449789018783e-05  2.4169109650138150e-05  2.4171399240627502e-05  2.4173365870770448e-05  2.4175048420614599e-05  2.4176478610874799e-05  2.4177682087745422e-05  2.4178679342255635e-05  2.4179486485083602e-05  2.4180115896938011e-05  2.4180576773309240e-05  2.4180875580975195e-05  2.4181016442360705e-05  2.4181001462835432e-05  2.4180831015361182e-05  2.4180503996578852e-05  2.4180018068426189e-05  2.4179369899623986e-05  2.4178555421737324e-05  2.4177570114830717e-05  2.4176409337748271e-05  2.4175068717446106e-05  2.4173544610196171e-05  2.4171834644419211e-05  2.4169938349913848e-05  2.4167857870885614e-05  2.4165598750130426e-05  2.4163170758937544e-05  2.4160588732113210e-05  2.4157873350938297e-05  2.4155051800530657e-05  2.4152158214417555e-05  2.4149233811220387e-05  2.4146326629624093e-05  2.4143490781413226e-05  2.4140785170444760e-05  2.4138271668231610e-05  2.4136012791912607e-05  2.4134068992343458e-05  2.4132495720670684e-05  2.4131340491164465e-05  2.4130640186473560e-05  2.4130418851232148e-05  2.4130686187727015e-05  2.4131436905263429e-05  2.4132650990680448e-05  2.4134294873235377e-05  2.4136323366875493e-05  2.4138682199964002e-05  2.4141310896582487e-05  2.4144145759166460e-05  2.4147122718388854e-05  2.4150179857021126e-05  2.4153259471023400e-05  2.4156309593412281e-05  2.4159284965534937e-05  2.4162147489538547e-05  2.4164866231260411e-05  2.4167417063487781e-05  2.4169782046805669e-05  2.4171948641760763e-05  2.4173908835138292e-05  2.4175658248050547e-05  2.4177195277054668e-05  2.4178520303721638e-05  2.4179634994272780e-05  2.4180541699698416e-05  2.4181242958259818e-05  2.4181741096267898e-05  2.4182037919537522e-05  2.4182134487784881e-05  2.3563456104070471e-05  2.3567562672665693e-05  2.3580187855229522e-05  2.3600669557124735e-05  2.3627968442808324e-05  2.3660770183530525e-05  2.3697606225164703e-05  2.3736976394432700e-05  2.3777458256500454e-05  2.3817792152452831e-05  2.3856936217253601e-05  2.3894091097681995e-05  2.3928698420452242e-05  2.3960419659945145e-05  2.3989102854516106e-05  2.4014743993864984e-05  2.4037448425127794e-05  2.4057395862982287e-05  2.4074810949835523e-05  2.4089940019526848e-05  2.4103033837000746e-05  2.4114335579762088e