<?xml version="1.0"?>
<VTKFile type="UnstructuredGrid"  version="0.1"  >
<UnstructuredGrid>
<Piece  NumberOfPoints="10201" NumberOfCells="20000">
<Points>
<DataArray  type="Float64"  NumberOfComponents="3"  format="ascii">0 0 0  0.25 0 0  0.5 0 0  0.75 0 0  1 0 0  1.25 0 0  1.5 0 0  1.75 0 0  2 0 0  2.25 0 0  2.5 0 0  2.75 0 0  3 0 0  3.25 0 0  3.5 0 0  3.75 0 0  4 0 0  4.25 0 0  4.5 0 0  4.75 0 0  5 0 0  5.25 0 0  5.5 0 0  5.75 0 0  6 0 0  6.25 0 0  6.5 0 0  6.75 0 0  7 0 0  7.25 0 0  7.5 0 0  7.75 0 0  8 0 0  8.25 0 0  8.5 0 0  8.75 0 0  9 0 0  9.25 0 0  9.5 0 0  9.75 0 0  10 0 0  10.25 0 0  10.5 0 0  10.75 0 0  11 0 0  11.25 0 0  11.5 0 0  11.75 0 0  12 0 0  12.25 0 0  12.5 0 0  12.75 0 0  13 0 0  13.25 0 0  13.5 0 0  13.75 0 0  14 0 0  14.25 0 0  14.5 0 0  14.75 0 0  15 0 0  15.25 0 0  15.5 0 0  15.75 0 0  16 0 0  16.25 0 0  16.5 0 0  16.75 0 0  17 0 0  17.25 0 0  17.5 0 0  17.75 0 0  18 0 0  18.25 0 0  18.5 0 0  18.75 0 0  19 0 0  19.25 0 0  19.5 0 0  19.75 0 0  20 0 0  20.25 0 0  20.5 0 0  20.75 0 0  21 0 0  21.25 0 0  21.5 0 0  21.75 0 0  22 0 0  22.25 0 0  22.5 0 0  22.75 0 0  23 0 0  23.25 0 0  23.5 0 0  23.75 0 0  24 0 0  24.25 0 0  24.5 0 0  24.75 0 0  25 0 0  0 0.25 0  0.25 0.25 0  0.5 0.25 0  0.75 0.25 0  1 0.25 0  1.25 0.25 0  1.5 0.25 0  1.75 0.25 0  2 0.25 0  2.25 0.25 0  2.5 0.25 0  2.75 0.25 0  3 0.25 0  3.25 0.25 0  3.5 0.25 0  3.75 0.25 0  4 0.25 0  4.25 0.25 0  4.5 0.25 0  4.75 0.25 0  5 0.25 0  5.25 0.25 0  5.5 0.25 0  5.75 0.25 0  6 0.25 0  6.25 0.25 0  6.5 0.25 0  6.75 0.25 0  7 0.25 0  7.25 0.25 0  7.5 0.25 0  7.75 0.25 0  8 0.25 0  8.25 0.25 0  8.5 0.25 0  8.75 0.25 0  9 0.25 0  9.25 0.25 0  9.5 0.25 0  9.75 0.25 0  10 0.25 0  10.25 0.25 0  10.5 0.25 0  10.75 0.25 0  11 0.25 0  11.25 0.25 0  11.5 0.25 0  11.75 0.25 0  12 0.25 0  12.25 0.25 0  12.5 0.25 0  12.75 0.25 0  13 0.25 0  13.25 0.25 0  13.5 0.25 0  13.75 0.25 0  14 0.25 0  14.25 0.25 0  14.5 0.25 0  14.75 0.25 0  15 0.25 0  15.25 0.25 0  15.5 0.25 0  15.75 0.25 0  16 0.25 0  16.25 0.25 0  16.5 0.25 0  16.75 0.25 0  17 0.25 0  17.25 0.25 0  17.5 0.25 0  17.75 0.25 0  18 0.25 0  18.25 0.25 0  18.5 0.25 0  18.75 0.25 0  19 0.25 0  19.25 0.25 0  19.5 0.25 0  19.75 0.25 0  20 0.25 0  20.25 0.25 0  20.5 0.25 0  20.75 0.25 0  21 0.25 0  21.25 0.25 0  21.5 0.25 0  21.75 0.25 0  22 0.25 0  22.25 0.25 0  22.5 0.25 0  22.75 0.25 0  23 0.25 0  23.25 0.25 0  23.5 0.25 0  23.75 0.25 0  24 0.25 0  24.25 0.25 0  24.5 0.25 0  24.75 0.25 0  25 0.25 0  0 0.5 0  0.25 0.5 0  0.5 0.5 0  0.75 0.5 0  1 0.5 0  1.25 0.5 0  1.5 0.5 0  1.75 0.5 0  2 0.5 0  2.25 0.5 0  2.5 0.5 0  2.75 0.5 0  3 0.5 0  3.25 0.5 0  3.5 0.5 0  3.75 0.5 0  4 0.5 0  4.25 0.5 0  4.5 0.5 0  4.75 0.5 0  5 0.5 0  5.25 0.5 0  5.5 0.5 0  5.75 0.5 0  6 0.5 0  6.25 0.5 0  6.5 0.5 0  6.75 0.5 0  7 0.5 0  7.25 0.5 0  7.5 0.5 0  7.75 0.5 0  8 0.5 0  8.25 0.5 0  8.5 0.5 0  8.75 0.5 0  9 0.5 0  9.25 0.5 0  9.5 0.5 0  9.75 0.5 0  10 0.5 0  10.25 0.5 0  10.5 0.5 0  10.75 0.5 0  11 0.5 0  11.25 0.5 0  11.5 0.5 0  11.75 0.5 0  12 0.5 0  12.25 0.5 0  12.5 0.5 0  12.75 0.5 0  13 0.5 0  13.25 0.5 0  13.5 0.5 0  13.75 0.5 0  14 0.5 0  14.25 0.5 0  14.5 0.5 0  14.75 0.5 0  15 0.5 0  15.25 0.5 0  15.5 0.5 0  15.75 0.5 0  16 0.5 0  16.25 0.5 0  16.5 0.5 0  16.75 0.5 0  17 0.5 0  17.25 0.5 0  17.5 0.5 0  17.75 0.5 0  18 0.5 0  18.25 0.5 0  18.5 0.5 0  18.75 0.5 0  19 0.5 0  19.25 0.5 0  19.5 0.5 0  19.75 0.5 0  20 0.5 0  20.25 0.5 0  20.5 0.5 0  20.75 0.5 0  21 0.5 0  21.25 0.5 0  21.5 0.5 0  21.75 0.5 0  22 0.5 0  22.25 0.5 0  22.5 0.5 0  22.75 0.5 0  23 0.5 0  23.25 0.5 0  23.5 0.5 0  23.75 0.5 0  24 0.5 0  24.25 0.5 0  24.5 0.5 0  24.75 0.5 0  25 0.5 0  0 0.75 0  0.25 0.75 0  0.5 0.75 0  0.75 0.75 0  1 0.75 0  1.25 0.75 0  1.5 0.75 0  1.75 0.75 0  2 0.75 0  2.25 0.75 0  2.5 0.75 0  2.75 0.75 0  3 0.75 0  3.25 0.75 0  3.5 0.75 0  3.75 0.75 0  4 0.75 0  4.25 0.75 0  4.5 0.75 0  4.75 0.75 0  5 0.75 0  5.25 0.75 0  5.5 0.75 0  5.75 0.75 0  6 0.75 0  6.25 0.75 0  6.5 0.75 0  6.75 0.75 0  7 0.75 0  7.25 0.75 0  7.5 0.75 0  7.75 0.75 0  8 0.75 0  8.25 0.75 0  8.5 0.75 0  8.75 0.75 0  9 0.75 0  9.25 0.75 0  9.5 0.75 0  9.75 0.75 0  10 0.75 0  10.25 0.75 0  10.5 0.75 0  10.75 0.75 0  11 0.75 0  11.25 0.75 0  11.5 0.75 0  11.75 0.75 0  12 0.75 0  12.25 0.75 0  12.5 0.75 0  12.75 0.75 0  13 0.75 0  13.25 0.75 0  13.5 0.75 0  13.75 0.75 0  14 0.75 0  14.25 0.75 0  14.5 0.75 0  14.75 0.75 0  15 0.75 0  15.25 0.75 0  15.5 0.75 0  15.75 0.75 0  16 0.75 0  16.25 0.75 0  16.5 0.75 0  16.75 0.75 0  17 0.75 0  17.25 0.75 0  17.5 0.75 0  17.75 0.75 0  18 0.75 0  18.25 0.75 0  18.5 0.75 0  18.75 0.75 0  19 0.75 0  19.25 0.75 0  19.5 0.75 0  19.75 0.75 0  20 0.75 0  20.25 0.75 0  20.5 0.75 0  20.75 0.75 0  21 0.75 0  21.25 0.75 0  21.5 0.75 0  21.75 0.75 0  22 0.75 0  22.25 0.75 0  22.5 0.75 0  22.75 0.75 0  23 0.75 0  23.25 0.75 0  23.5 0.75 0  23.75 0.75 0  24 0.75 0  24.25 0.75 0  24.5 0.75 0  24.75 0.75 0  25 0.75 0  0 1 0  0.25 1 0  0.5 1 0  0.75 1 0  1 1 0  1.25 1 0  1.5 1 0  1.75 1 0  2 1 0  2.25 1 0  2.5 1 0  2.75 1 0  3 1 0  3.25 1 0  3.5 1 0  3.75 1 0  4 1 0  4.25 1 0  4.5 1 0  4.75 1 0  5 1 0  5.25 1 0  5.5 1 0  5.75 1 0  6 1 0  6.25 1 0  6.5 1 0  6.75 1 0  7 1 0  7.25 1 0  7.5 1 0  7.75 1 0  8 1 0  8.25 1 0  8.5 1 0  8.75 1 0  9 1 0  9.25 1 0  9.5 1 0  9.75 1 0  10 1 0  10.25 1 0  10.5 1 0  10.75 1 0  11 1 0  11.25 1 0  11.5 1 0  11.75 1 0  12 1 0  12.25 1 0  12.5 1 0  12.75 1 0  13 1 0  13.25 1 0  13.5 1 0  13.75 1 0  14 1 0  14.25 1 0  14.5 1 0  14.75 1 0  15 1 0  15.25 1 0  15.5 1 0  15.75 1 0  16 1 0  16.25 1 0  16.5 1 0  16.75 1 0  17 1 0  17.25 1 0  17.5 1 0  17.75 1 0  18 1 0  18.25 1 0  18.5 1 0  18.75 1 0  19 1 0  19.25 1 0  19.5 1 0  19.75 1 0  20 1 0  20.25 1 0  20.5 1 0  20.75 1 0  21 1 0  21.25 1 0  21.5 1 0  21.75 1 0  22 1 0  22.25 1 0  22.5 1 0  22.75 1 0  23 1 0  23.25 1 0  23.5 1 0  23.75 1 0  24 1 0  24.25 1 0  24.5 1 0  24.75 1 0  25 1 0  0 1.25 0  0.25 1.25 0  0.5 1.25 0  0.75 1.25 0  1 1.25 0  1.25 1.25 0  1.5 1.25 0  1.75 1.25 0  2 1.25 0  2.25 1.25 0  2.5 1.25 0  2.75 1.25 0  3 1.25 0  3.25 1.25 0  3.5 1.25 0  3.75 1.25 0  4 1.25 0  4.25 1.25 0  4.5 1.25 0  4.75 1.25 0  5 1.25 0  5.25 1.25 0  5.5 1.25 0  5.75 1.25 0  6 1.25 0  6.25 1.25 0  6.5 1.25 0  6.75 1.25 0  7 1.25 0  7.25 1.25 0  7.5 1.25 0  7.75 1.25 0  8 1.25 0  8.25 1.25 0  8.5 1.25 0  8.75 1.25 0  9 1.25 0  9.25 1.25 0  9.5 1.25 0  9.75 1.25 0  10 1.25 0  10.25 1.25 0  10.5 1.25 0  10.75 1.25 0  11 1.25 0  11.25 1.25 0  11.5 1.25 0  11.75 1.25 0  12 1.25 0  12.25 1.25 0  12.5 1.25 0  12.75 1.25 0  13 1.25 0  13.25 1.25 0  13.5 1.25 0  13.75 1.25 0  14 1.25 0  14.25 1.25 0  14.5 1.25 0  14.75 1.25 0  15 1.25 0  15.25 1.25 0  15.5 1.25 0  15.75 1.25 0  16 1.25 0  16.25 1.25 0  16.5 1.25 0  16.75 1.25 0  17 1.25 0  17.25 1.25 0  17.5 1.25 0  17.75 1.25 0  18 1.25 0  18.25 1.25 0  18.5 1.25 0  18.75 1.25 0  19 1.25 0  19.25 1.25 0  19.5 1.25 0  19.75 1.25 0  20 1.25 0  20.25 1.25 0  20.5 1.25 0  20.75 1.25 0  21 1.25 0  21.25 1.25 0  21.5 1.25 0  21.75 1.25 0  22 1.25 0  22.25 1.25 0  22.5 1.25 0  22.75 1.25 0  23 1.25 0  23.25 1.25 0  23.5 1.25 0  23.75 1.25 0  24 1.25 0  24.25 1.25 0  24.5 1.25 0  24.75 1.25 0  25 1.25 0  0 1.5 0  0.25 1.5 0  0.5 1.5 0  0.75 1.5 0  1 1.5 0  1.25 1.5 0  1.5 1.5 0  1.75 1.5 0  2 1.5 0  2.25 1.5 0  2.5 1.5 0  2.75 1.5 0  3 1.5 0  3.25 1.5 0  3.5 1.5 0  3.75 1.5 0  4 1.5 0  4.25 1.5 0  4.5 1.5 0  4.75 1.5 0  5 1.5 0  5.25 1.5 0  5.5 1.5 0  5.75 1.5 0  6 1.5 0  6.25 1.5 0  6.5 1.5 0  6.75 1.5 0  7 1.5 0  7.25 1.5 0  7.5 1.5 0  7.75 1.5 0  8 1.5 0  8.25 1.5 0  8.5 1.5 0  8.75 1.5 0  9 1.5 0  9.25 1.5 0  9.5 1.5 0  9.75 1.5 0  10 1.5 0  10.25 1.5 0  10.5 1.5 0  10.75 1.5 0  11 1.5 0  11.25 1.5 0  11.5 1.5 0  11.75 1.5 0  12 1.5 0  12.25 1.5 0  12.5 1.5 0  12.75 1.5 0  13 1.5 0  13.25 1.5 0  13.5 1.5 0  13.75 1.5 0  14 1.5 0  14.25 1.5 0  14.5 1.5 0  14.75 1.5 0  15 1.5 0  15.25 1.5 0  15.5 1.5 0  15.75 1.5 0  16 1.5 0  16.25 1.5 0  16.5 1.5 0  16.75 1.5 0  17 1.5 0  17.25 1.5 0  17.5 1.5 0  17.75 1.5 0  18 1.5 0  18.25 1.5 0  18.5 1.5 0  18.75 1.5 0  19 1.5 0  19.25 1.5 0  19.5 1.5 0  19.75 1.5 0  20 1.5 0  20.25 1.5 0  20.5 1.5 0  20.75 1.5 0  21 1.5 0  21.25 1.5 0  21.5 1.5 0  21.75 1.5 0  22 1.5 0  22.25 1.5 0  22.5 1.5 0  22.75 1.5 0  23 1.5 0  23.25 1.5 0  23.5 1.5 0  23.75 1.5 0  24 1.5 0  24.25 1.5 0  24.5 1.5 0  24.75 1.5 0  25 1.5 0  0 1.75 0  0.25 1.75 0  0.5 1.75 0  0.75 1.75 0  1 1.75 0  1.25 1.75 0  1.5 1.75 0  1.75 1.75 0  2 1.75 0  2.25 1.75 0  2.5 1.75 0  2.75 1.75 0  3 1.75 0  3.25 1.75 0  3.5 1.75 0  3.75 1.75 0  4 1.75 0  4.25 1.75 0  4.5 1.75 0  4.75 1.75 0  5 1.75 0  5.25 1.75 0  5.5 1.75 0  5.75 1.75 0  6 1.75 0  6.25 1.75 0  6.5 1.75 0  6.75 1.75 0  7 1.75 0  7.25 1.75 0  7.5 1.75 0  7.75 1.75 0  8 1.75 0  8.25 1.75 0  8.5 1.75 0  8.75 1.75 0  9 1.75 0  9.25 1.75 0  9.5 1.75 0  9.75 1.75 0  10 1.75 0  10.25 1.75 0  10.5 1.75 0  10.75 1.75 0  11 1.75 0  11.25 1.75 0  11.5 1.75 0  11.75 1.75 0  12 1.75 0  12.25 1.75 0  12.5 1.75 0  12.75 1.75 0  13 1.75 0  13.25 1.75 0  13.5 1.75 0  13.75 1.75 0  14 1.75 0  14.25 1.75 0  14.5 1.75 0  14.75 1.75 0  15 1.75 0  15.25 1.75 0  15.5 1.75 0  15.75 1.75 0  16 1.75 0  16.25 1.75 0  16.5 1.75 0  16.75 1.75 0  17 1.75 0  17.25 1.75 0  17.5 1.75 0  17.75 1.75 0  18 1.75 0  18.25 1.75 0  18.5 1.75 0  18.75 1.75 0  19 1.75 0  19.25 1.75 0  19.5 1.75 0  19.75 1.75 0  20 1.75 0  20.25 1.75 0  20.5 1.75 0  20.75 1.75 0  21 1.75 0  21.25 1.75 0  21.5 1.75 0  21.75 1.75 0  22 1.75 0  22.25 1.75 0  22.5 1.75 0  22.75 1.75 0  23 1.75 0  23.25 1.75 0  23.5 1.75 0  23.75 1.75 0  24 1.75 0  24.25 1.75 0  24.5 1.75 0  24.75 1.75 0  25 1.75 0  0 2 0  0.25 2 0  0.5 2 0  0.75 2 0  1 2 0  1.25 2 0  1.5 2 0  1.75 2 0  2 2 0  2.25 2 0  2.5 2 0  2.75 2 0  3 2 0  3.25 2 0  3.5 2 0  3.75 2 0  4 2 0  4.25 2 0  4.5 2 0  4.75 2 0  5 2 0  5.25 2 0  5.5 2 0  5.75 2 0  6 2 0  6.25 2 0  6.5 2 0  6.75 2 0  7 2 0  7.25 2 0  7.5 2 0  7.75 2 0  8 2 0  8.25 2 0  8.5 2 0  8.75 2 0  9 2 0  9.25 2 0  9.5 2 0  9.75 2 0  10 2 0  10.25 2 0  10.5 2 0  10.75 2 0  11 2 0  11.25 2 0 
[...]
<PointData  Scalars="f_26"> 
<DataArray  type="Float64"  Name="f_26"  format="ascii">2.5584055149828305e-05  2.5575290628365044e-05  2.5556076278380883e-05  2.5524905985297060e-05  2.5480732909385847e-05  2.5422479047581034e-05  2.5348979543675449e-05  2.5259062398761837e-05  2.5151701233798703e-05  2.5026224391102420e-05  2.4882562937915155e-05  2.4721504595928439e-05  2.4544901726509214e-05  2.4355770054915642e-05  2.4158222669736021e-05  2.3957220880561133e-05  2.3758219322362811e-05  2.3567040271484759e-05  2.3390554024047022e-05  2.3238554719182339e-05  2.3124643249192543e-05  2.3059262510821570e-05  2.3037447915845530e-05  2.3042026592937996e-05  2.3058522571107844e-05  2.3079445586462788e-05  2.3101594533735294e-05  2.3124026255206404e-05  2.3147061729169438e-05  2.3171681384502612e-05  2.3199076115048434e-05  2.3230287424078685e-05  2.3265921333206327e-05  2.3305948971831693e-05  2.3349618086692172e-05  2.3395487229434965e-05  2.3441566573312464e-05  2.3485524925871697e-05  2.3524915306604863e-05  2.3557382800726638e-05  2.3580838267639254e-05  2.3593596659762300e-05  2.3594483694964352e-05  2.3582913216750540e-05  2.3558935583074535e-05  2.3523257401797601e-05  2.3477233772405221e-05  2.3422832319675797e-05  2.3362559913946521e-05  2.3299329848148573e-05  2.3236242636320794e-05  2.3176274264623673e-05  2.3121911387730541e-05  2.3074820737596619e-05  2.3035657648435206e-05  2.3004082457807216e-05  2.2978972066779503e-05  2.2958735100432317e-05  2.2941614282334613e-05  2.2925895073644751e-05  2.2909996373383055e-05  2.2892458483273093e-05  2.2871851104973416e-05  2.2846612060310147e-05  2.2814787489426257e-05  2.2773590345218599e-05  2.2718590137659404e-05  2.2641873467124312e-05  2.2529727372067309e-05  2.2366722336899319e-05  2.2254729181792008e-05  2.2315529238660589e-05  2.2496177500826909e-05  2.2726357005175350e-05  2.2978358995362855e-05  2.3240122269950296e-05  2.3502164868507860e-05  2.3755665690915306e-05  2.3993059000555596e-05  2.4208830670583753e-05  2.4399841420307827e-05  2.4565169365318874e-05  2.4705641372256345e-05  2.4823251936296589e-05  2.4920621354398240e-05  2.5000572864561480e-05  2.5065847646936750e-05  2.5118940583374387e-05  2.5162025835608210e-05  2.5196941268370326e-05  2.5225206852838650e-05  2.5248059592125501e-05  2.5266493920699989e-05  2.5281301256410118e-05  2.5293105517997121e-05  2.5302393317675591e-05  2.5309538556111404e-05  2.5314821512435337e-05  2.5318442123687840e-05  2.5320524668077171e-05  2.5321099688152766e-05  2.5570147299727006e-05  2.5563325309731619e-05  2.5544428652982441e-05  2.5513135785889458e-05  2.5468671339602823e-05  2.5410036033253366e-05  2.5336104069976232e-05  2.5245738008201879e-05  2.5137950049497301e-05  2.5012112095993634e-05  2.4868201165055269e-05  2.4707048271743406e-05  2.4530539891250420e-05  2.4341710109602335e-05  2.4144669523309855e-05  2.3944354668553163e-05  2.3746185211215677e-05  2.3555962520142098e-05  2.3380539146655987e-05  2.3229683976672592e-05  2.3117046728491908e-05  2.3053321841055337e-05  2.3033549351898991e-05  2.3039850197332899e-05  2.3057359619761182e-05  2.3078801734164041e-05  2.3101206109426226e-05  2.3123766682910536e-05  2.3146886402711405e-05  2.3171592211665221e-05  2.3199098173089527e-05  2.3230454951800977e-05  2.3266270865119065e-05  2.3306517015359693e-05  2.3350440645604347e-05  2.3396599097363645e-05  2.3442999486745785e-05  2.3487304835180861e-05  2.3527059640538754e-05  2.3559898440523756e-05  2.3583720370410185e-05  2.3596828059526647e-05  2.3598034554236602e-05  2.3586740721297176e-05  2.3562983590023196e-05  2.3527456054844022e-05  2.3481499315497570e-05  2.3427067848226482e-05  2.3366658546671835e-05  2.3303182063783141e-05  2.3239748246441812e-05  2.3179356893936855e-05  2.3124531080322678e-05  2.3076979667796624e-05  2.3037395560866065e-05  2.3005462579674964e-05  2.2980062855754415e-05  2.2959594724197550e-05  2.2942281951221500e-05  2.2926389031771821e-05  2.2910315868229331e-05  2.2892586797858893e-05  2.2871757956374990e-05  2.2846254961458892e-05  2.2814110688472943e-05  2.2772537823333084e-05  2.2717089379736115e-05  2.2640127710402065e-05  2.2528337823033821e-05  2.2371498899276231e-05  2.2262074083739219e-05  2.2319827478233213e-05  2.2498837634144728e-05  2.2728495498746834e-05  2.2980169427578717e-05  2.3241622393288027e-05  2.3503414206955422e-05  2.3756735783749111e-05  2.3993997046224207e-05  2.4209661911976952e-05  2.4400575318000336e-05  2.4565806780820318e-05  2.4706181186930246e-05  2.4823695326867511e-05  2.4920973363371371e-05  2.5000842016576666e-05  2.5066044648326848e-05  2.5119076899651785e-05  2.5162112563277971e-05  2.5196988420866548e-05  2.5225223017072288e-05  2.5248051853164557e-05  2.5266467952055305e-05  2.5281261497986636e-05  2.5293055395404562e-05  2.5302335494246302e-05  2.5309475279281278e-05  2.5314755342351033e-05  2.5318378276545071e-05  2.5320480577253256e-05  2.5321148745514824e-05  2.5535101546569285e-05  2.5528576696090991e-05  2.5509550345597876e-05  2.5477713558075390e-05  2.5432388570006056e-05  2.5372656229163468e-05  2.5297466623185528e-05  2.5205768923364806e-05  2.5096680119114400e-05  2.4969695879344166e-05  2.4824930267099323e-05  2.4663352262582542e-05  2.4486969199332480e-05  2.4298898289480818e-05  2.4103277253680852e-05  2.3905005611864837e-05  2.3709432059115169e-05  2.3522342833302430e-05  2.3350752102654527e-05  2.3204869153999894e-05  2.3098629330258480e-05  2.3041708501787480e-05  2.3027089519250921e-05  2.3036206378924168e-05  2.3055071143096648e-05  2.3077204075792180e-05  2.3099993680767058e-05  2.3122813272363865e-05  2.3146169946279304e-05  2.3171153047658611e-05  2.3199014579819071e-05  2.3230827897164248e-05  2.3267213440502376e-05  2.3308145945186340e-05  2.3352868590262950e-05  2.3399927333835874e-05  2.3447311187889717e-05  2.3492659535782191e-05  2.3533489348907729e-05  2.3567405349152156e-05  2.3592275704118986e-05  2.3606371513097217e-05  2.3608473888938715e-05  2.3597951246001427e-05  2.3574807424859945e-05  2.3539701374642873e-05  2.3493940384313486e-05  2.3439447675484181e-05  2.3378697000440683e-05  2.3314592064258024e-05  2.3250260232880220e-05  2.3188748122252809e-05  2.3132653565040962e-05  2.3083779214459218e-05  2.3042914534937831e-05  2.3009822836987006e-05  2.2983433009382219e-05  2.2962152802085768e-05  2.2944184897445583e-05  2.2927754860624247e-05  2.2911217746158816e-05  2.2893054829767878e-05  2.2871783700234284e-05  2.2845796107052628e-05  2.2813090174524443e-05  2.2770846987354775e-05  2.2714563647710496e-05  2.2636605116496541e-05  2.2523641462024385e-05  2.2367606529270328e-05  2.2264135153864675e-05  2.2326071264558968e-05  2.2505982198599897e-05  2.2735441764929791e-05  2.2986612202511538e-05  2.3247411599915710e-05  2.3508470034009930e-05  2.3761032666922639e-05  2.3997552781469501e-05  2.4212527456569437e-05  2.4402823592243708e-05  2.4567521790294461e-05  2.4707449078542394e-05  2.4824598018257755e-05  2.4921584625312297e-05  2.5001225552351847e-05  2.5066253634165547e-05  2.5119154488143138e-05  2.5162092938828488e-05  2.5196898099326814e-05  2.5225082180996949e-05  2.5247875598183342e-05  2.5266267384033139e-05  2.5281044666465978e-05  2.5292828082223859e-05  2.5302101907891772e-05  2.5309238754194923e-05  2.5314519237966427e-05  2.5318147406064748e-05  2.5320263137122533e-05  2.5320953312637349e-05  2.5476494733141171e-05  2.5469835433799383e-05  2.5450273052659644e-05  2.5417442198253438e-05  2.5370705549583058e-05  2.5309222892109322e-05  2.5232051061847389e-05  2.5138276753046487e-05  2.5027188195061463e-05  2.4898483456573289e-05  2.4752499070085855e-05  2.4590425587472524e-05  2.4414461500614352e-05  2.4227851507498376e-05  2.4034768044272601e-05  2.3840046436230199e-05  2.3648945560371685e-05  2.3467292391523229e-05  2.3302519277399751e-05  2.3165738479717196e-05  2.3071092584361100e-05  2.3025646649645669e-05  2.3018722343415699e-05  2.3031546058115192e-05  2.3052036771631390e-05  2.3074915222458837e-05  2.3098086163255887e-05  2.3121180577214156e-05  2.3144841197075223e-05  2.3170232413814973e-05  2.3198650780055865e-05  2.3231197128523020e-05  2.3268506904650767e-05  2.3310558077973549e-05  2.3356585124653439e-05  2.3405113641635680e-05  2.3454101834447788e-05  2.3501150069483134e-05  2.3543730873996549e-05  2.3579401590735478e-05  2.3605981735136763e-05  2.3621693301391245e-05  2.3625268031858683e-05  2.3616024448525472e-05  2.3593915462142002e-05  2.3559547655732842e-05  2.3514175119428489e-05  2.3459670280137441e-05  2.3398466245526262e-05  2.3333448720995072e-05  2.3267763538979333e-05  2.3204521405418529e-05  2.3146429614742356e-05  2.3095433920838282e-05  2.3052477327158633e-05  2.3017456801068387e-05  2.2989388303905007e-05  2.2966708613712640e-05  2.2947598279680076e-05  2.2930227566877230e-05  2.2912881758415412e-05  2.2893970514206878e-05  2.2871942782613834e-05  2.2845123327643930e-05  2.2811434781951092e-05  2.2767973261896881e-05  2.2710077464791066e-05  2.2630046604365188e-05  2.2514277171589423e-05  2.2358981218521268e-05  2.2265538642652746e-05  2.2335551647643529e-05  2.2517663099272768e-05  2.2747038727360888e-05  2.2997478896739257e-05  2.3257248862172058e-05  2.3517093038937776e-05  2.3768347278405262e-05  2.4003556739242717e-05  2.4217296720271152e-05  2.4406488719292713e-05  2.4570242112179203e-05  2.4709390472384285e-05  2.4825917126261999e-05  2.4922419747649510e-05  2.5001692929561264e-05  2.5066447376674552e-05  2.5119148583763106e-05  2.5161944183753722e-05  2.5196649219252916e-05  2.5224764739259153e-05  2.5247512511229454e-05  2.5265874999683962e-05  2.5280634434164595e-05  2.5292407880753699e-05  2.5301677112290195e-05  2.5308813128030483e-05  2.5314095715865621e-05  2.5317728697028755e-05  2.5319851528834200e-05  2.5320547512781906e-05  2.5391928414676970e-05  2.5384995561621362e-05  2.5364620098058144e-05  2.5330425742595139e-05  2.5281826150748422e-05  2.5218081640842756e-05  2.5138395050729141e-05  2.5042045507004674e-05  2.4928559501717132e-05  2.4797911622382912e-05  2.4650734817512064e-05  2.4488505448332308e-05  2.4313656939826240e-05  2.4129574562852766e-05  2.3940442960529592e-05  2.3751003217815703e-05  2.3566451072315033e-05  2.3392811300241949e-05  2.3238368474650941e-05  2.3115569067355919e-05  2.3037952761488783e-05  2.3007683944203371e-05  2.3009681261535265e-05  2.3026379230776142e-05  2.3048454978784628e-05  2.3071976490657085e-05  2.3095431674380122e-05  2.3118747414160180e-05  2.3142719683051817e-05  2.3168596206104105e-05  2.3197721885146408e-05  2.3231226860115127e-05  2.3269761786038879e-05  2.3313305974020435e-05  2.3361080712612225e-05  2.3411583904307948e-05  2.3462732829370930e-05  2.3512076383683583e-05  2.3557028597221049e-05  2.3595084529327897e-05  2.3623999869082418e-05  2.3641932452033168e-05  2.3647549922107189e-05  2.3640106494182573e-05  2.3619489747656616e-05  2.3586238841374857e-05  2.3541537958755339e-05  2.3487189566932278e-05  2.3425565159099065e-05  2.3359513270943364e-05  2.3292187254260905e-05  2.3226765619534463e-05  2.3166086721951680e-05  2.3112277858874881e-05  2.3066485928804010e-05  2.3028795237612791e-05  2.2998354880386425e-05  2.2973659731577973e-05  2.2952876689029094e-05  2.2934111401645464e-05  2.2915558378596205e-05  2.2895528632421454e-05  2.2872372859825752e-05  2.2844316281520858e-05  2.2809170436860668e-05  2.2763897878743451e-05  2.2703626373083141e-05  2.2620539410788077e-05  2.2500899384298337e-05  2.2347650398590194e-05  2.2268191297750641e-05  2.2348761208309978e-05  2.2533735019812514e-05  2.2762987633375584e-05  2.3012426736800311e-05  2.3270776416067227e-05  2.3528933713772067e-05  2.3778358674715533e-05  2.4011728406693030e-05  2.4223733430538207e-05  2.4411376648044012e-05  2.4573810521826999e-05  2.4711878322718268e-05  2.4827549340211244e-05  2.4923393660071905e-05  2.5002172982464519e-05  2.5066565344777127e-05  2.5119006875086110e-05  2.5161620425572010e-05  2.5196201016910366e-05  2.5224234019968556e-05  2.5246929211318261e-05  2.5265260054936955e-05  2.5280002134743559e-05  2.5291767693306066e-05  2.5301035078055963e-05  2.5308172928520854e-05  2.5313459451282578e-05  2.5317097319928498e-05  2.5319224695449421e-05  2.5319922568990338e-05  2.5278760952941251e-05  2.5271517885308750e-05  2.5250174668608719e-05  2.5214386665314228e-05  2.5163651443153727e-05  2.5097367801103258e-05  2.5014933031887006e-05  2.4915877046888719e-05  2.4800028803930612e-05  2.4667702856159046e-05  2.4519882647114977e-05  2.4358365497027696e-05  2.4185826897441751e-05  2.4005765560830883e-05  2.3822333341275627e-05  2.3640184569585687e-05  2.3464566484645065e-05  2.3302066152442358e-05  2.3162492573334845e-05  2.3059636873387531e-05  2.3004167933442863e-05  2.2990765221791557e-05  2.3001171555906432e-05  2.3021177682853137e-05  2.3044488942772190e-05  2.3068386048842992e-05  2.3091928182423312e-05  2.3115339074165960e-05  2.3139569276864069e-05  2.3165949807522572e-05  2.3195873043071563e-05  2.3230497255855235e-05  2.3270486675916339e-05  2.3315819613422544e-05  2.3365700807190932e-05  2.3418595640092698e-05  2.3472373741486135e-05  2.3524523792154073e-05  2.3572390860822722e-05  2.3613396069521472e-05  2.3645219023984941e-05  2.3665941107257883e-05  2.3674153992239171e-05  2.3669036383138987e-05  2.3650399900587107e-05  2.3618705572393937e-05  2.3575055405997082e-05  2.3521165861619981e-05  2.3459325271958125e-05  2.3392319259292498e-05  2.3323284757755411e-05  2.3255454443966897e-05  2.3191800677685478e-05  2.3134653571273740e-05  2.3085401453880298e-05  2.3044364338678539e-05  2.3010874350797366e-05  2.2983524610272903e-05  2.2960490540412595e-05  2.2939815793511278e-05  2.2919591193909910e-05  2.2898006499193541e-05  2.2873286602448459e-05  2.2843525936641143e-05  2.2806392458403312e-05  2.2758671383284177e-05  2.2695255527567383e-05  2.2608188631060917e-05  2.2484085877748123e-05  2.2335241144475711e-05  2.2273318670225023e-05  2.2365845755894389e-05  2.2553885827289348e-05  2.2782854690528902e-05  2.3030985208781938e-05  2.3287516814845527e-05  2.3543529134298648e-05  2.3790637154367442e-05  2.4021684140749083e-05  2.4231505793615608e-05  2.4417207180317844e-05  2.4577994049092072e-05  2.4714720407905179e-05  2.4829336171271500e-05  2.4924375043410110e-05  2.5002555922032477e-05  2.5066514680500801e-05  2.5118649799213317e-05  2.5161052567130656e-05  2.5195492669335068e-05  2.5223435770080230e-05  2.5246076675788703e-05  2.5264377687220499e-05  2.5279106191869527e-05  2.5290868499025478e-05  2.5300138721363452e-05  2.5307282513990128e-05  2.5312575978236779e-05  2.5316220217817969e-05  2.5318352016766465e-05  2.5319050967948587e-05  2.5134433427795472e-05  2.5126909912940624e-05  2.5104576466643218e-05  2.5067156727037729e-05  2.5014272156785807e-05  2.4945505732993213e-05  2.4860501297140913e-05  2.4759095252662259e-05  2.4641472479318514e-05  2.4508330617804696e-05  2.4361027338794459e-05  2.4201676657349273e-05  2.4033157455956753e-05  2.3859020159476119e-05  2.3683369427024907e-05  2.3510868185686151e-05  2.3347116921556836e-05  2.3200005111997083e-05  2.3081541513754439e-05  2.3005357089472575e-05  2.2975094383019371e-05  2.2977121108932599e-05  2.2993923594127842e-05  2.3016225797108673e-05  2.3040198626173946e-05  2.3064076830206705e-05  2.3087431570069985e-05  2.3110753229765395e-05  2.3135133411956024e-05  2.3161978613697386e-05  2.3192723832489665e-05  2.3228552065498597e-05  2.3270138565772764e-05  2.3317458852633434e-05  2.3369699890278717e-05  2.3425293218354128e-05  2.3482058426577690e-05  2.3537419783433710e-05  2.3588647168851043e-05  2.3633079733254384e-05  2.3668311713807358e-05  2.3692338274925953e-05  2.3703665647085957e-05  2.3701388451355235e-05  2.3685234979134604e-05  2.3655581704811405e-05  2.3613441651599670e-05  2.3560435115237123e-05  2.3498749640215433e-05  2.3431080427254696e-05  2.3360514008757907e-05  2.3290306160117721e-05  2.3223544882322142e-05  2.3162762753942868e-05  2.3109608194543327e-05  2.3064672706535080e-05  2.3027518459625348e-05  2.2996884294920165e-05  2.2970990216278838e-05  2.2947835485161309e-05  2.2925406436208770e-05  2.2901756962094334e-05  2.2874963136276267e-05  2.2842960400773685e-05  2.2803244520938943e-05  2.2752386291924180e-05  2.2685054952056425e-05  2.2593161500639758e-05  2.2464654541740470e-05  2.2323457035393759e-05  2.2281832041925405e-05  2.2386713567691262e-05  2.2577652706226938e-05  2.2806076709572127e-05  2.3052560860746909e-05  2.3306875964498464e-05  2.3560306594866253e-05  2.3804650470034489e-05  2.4032945589332607e-05  2.4240195882057179e-05  2.4423623105953939e-05  2.4582491984301839e-05  2.4717665747326276e-05  2.4831068684017553e-05  2.4925189526414686e-05  2.5002695271509740e-05  2.5066171174549622e-05  2.5117970829615582e-05  2.5160148106140497e-05  2.5194442809334210e-05  2.5222297481662615e-05  2.5244889456612981e-05  2.5263168073594713e-05  2.5277891250225014e-05  2.5289658466490000e-05  2.5298938965982855e-05  2.5306094961766757e-05  2.5311400121662483e-05  2.5315053792696162e-05  2.5317191434005233e-05  2.5317891651489360e-05  2.4957100924325556e-05  2.4949387266947190e-05  2.4926194617945357e-05  2.4887348991038871e-05  2.4832635832757605e-05  2.4761866955725656e-05  2.4674979098198287e-05  2.4572157776045864e-05  2.4453975021921929e-05  2.4321522589633842e-05  2.4176514487647770e-05  2.4021327967406429e-05  2.3858968195941491e-05  2.3693008059003885e-05  2.3527589747180995e-05  2.3367651174929020e-05  2.3219883776339196e-05  2.3094564604527166e-05  2.3005361442716456e-05  2.2961109837618146e-05  2.2954397796870548e-05  2.2967425004862404e-05  2.2988099498692465e-05  2.3011569975923437e-05  2.3035519898874564e-05  2.3058927920885822e-05  2.3081783182675479e-05  2.3104795722988004e-05  2.3129175570853854e-05  2.3156391927984475e-05  2.3187915065867016e-05  2.3224948146945583e-05  2.3268175008155108e-05  2.3317568146424645e-05  2.3372298618428009e-05  2.3430767195118070e-05  2.3490746215639129e-05  2.3549596641100804e-05  2.3604511756731985e-05  2.3652744630929542e-05  2.3691797774570740e-05  2.3719572507031214e-05  2.3734481840712681e-05  2.3735529363098775e-05  2.3722354662764408e-05  2.3695246255967948e-05  2.3655126228357095e-05  2.3603515692390416e-05  2.3542491966402328e-05  2.3474637522968230e-05  2.3402951512100008e-05  2.3330668575029532e-05  2.3260953477882756e-05  2.3196517429213540e-05  2.3139264468110077e-05  2.3090073678069258e-05  2.3048772153648899e-05  2.3014290703254546e-05  2.2984938995850657e-05  2.2958704139402560e-05  2.2933482031057799e-05  2.2907188007580339e-05  2.2877734619003684e-05  2.2842876917649453e-05  2.2799916491506238e-05  2.2745188958744773e-05  2.2673189624250223e-05  2.2575791383444297e-05  2.2443803448330428e-05  2.2314021637160522e-05  2.2294305555585439e-05  2.2411047223426740e-05  2.2604428679836778e-05  2.2831966535193635e-05  2.3076443618974235e-05  2.3328149963333232e-05  2.3578591320723727e-05  2.3819772621875200e-05  2.4044949130589029e-05  2.4249308957733510e-05  2.4430198687645565e-05  2.4586943031027401e-05  2.4720410199705048e-05  2.4832491548953971e-05  2.4925622355612709e-05  2.5002409392915929e-05  2.5065379904081821e-05  2.5116836457447317e-05  2.5158790652431410e-05  2.5192948727618905e-05  2.5220727388362957e-05  2.5243284548041503e-05  2.5261555220435580e-05  2.5276286916320631e-05  2.5288071652949639e-05  2.5297373381227214e-05  2.5304550593131801e-05  2.5309874352729200e-05  2.5313542185062990e-05  2.5315688283573813e-05  2.5316390442143700e-05  2.4746459772008470e-05  2.4738699078358355e-05  2.4714947000839045e-05  2.4675161283711281e-05  2.4619323896305866e-05  2.4547508578977479e-05  2.4459973500012967e-05  2.4357269961779010e-05  2.4240353240308513e-05  2.4110675623837442e-05  2.3970238163511122e-05  2.3821596032213962e-05  2.3667853622368665e-05  2.3512689837743845e-05  2.3360543647063009e-05  2.3217379650107353e-05  2.3092304752925297e-05  2.2998169669676433e-05  2.2945832434982448e-05  2.2932532202513559e-05  2.2942159996758377e-05  2.2961022772971808e