<?xml version="1.0"?>
<VTKFile type="UnstructuredGrid"  version="0.1"  >
<UnstructuredGrid>
<Piece  NumberOfPoints="10201" NumberOfCells="20000">
<Points>
<DataArray  type="Float64"  NumberOfComponents="3"  format="ascii">0 0 0  0.25 0 0  0.5 0 0  0.75 0 0  1 0 0  1.25 0 0  1.5 0 0  1.75 0 0  2 0 0  2.25 0 0  2.5 0 0  2.75 0 0  3 0 0  3.25 0 0  3.5 0 0  3.75 0 0  4 0 0  4.25 0 0  4.5 0 0  4.75 0 0  5 0 0  5.25 0 0  5.5 0 0  5.75 0 0  6 0 0  6.25 0 0  6.5 0 0  6.75 0 0  7 0 0  7.25 0 0  7.5 0 0  7.75 0 0  8 0 0  8.25 0 0  8.5 0 0  8.75 0 0  9 0 0  9.25 0 0  9.5 0 0  9.75 0 0  10 0 0  10.25 0 0  10.5 0 0  10.75 0 0  11 0 0  11.25 0 0  11.5 0 0  11.75 0 0  12 0 0  12.25 0 0  12.5 0 0  12.75 0 0  13 0 0  13.25 0 0  13.5 0 0  13.75 0 0  14 0 0  14.25 0 0  14.5 0 0  14.75 0 0  15 0 0  15.25 0 0  15.5 0 0  15.75 0 0  16 0 0  16.25 0 0  16.5 0 0  16.75 0 0  17 0 0  17.25 0 0  17.5 0 0  17.75 0 0  18 0 0  18.25 0 0  18.5 0 0  18.75 0 0  19 0 0  19.25 0 0  19.5 0 0  19.75 0 0  20 0 0  20.25 0 0  20.5 0 0  20.75 0 0  21 0 0  21.25 0 0  21.5 0 0  21.75 0 0  22 0 0  22.25 0 0  22.5 0 0  22.75 0 0  23 0 0  23.25 0 0  23.5 0 0  23.75 0 0  24 0 0  24.25 0 0  24.5 0 0  24.75 0 0  25 0 0  0 0.25 0  0.25 0.25 0  0.5 0.25 0  0.75 0.25 0  1 0.25 0  1.25 0.25 0  1.5 0.25 0  1.75 0.25 0  2 0.25 0  2.25 0.25 0  2.5 0.25 0  2.75 0.25 0  3 0.25 0  3.25 0.25 0  3.5 0.25 0  3.75 0.25 0  4 0.25 0  4.25 0.25 0  4.5 0.25 0  4.75 0.25 0  5 0.25 0  5.25 0.25 0  5.5 0.25 0  5.75 0.25 0  6 0.25 0  6.25 0.25 0  6.5 0.25 0  6.75 0.25 0  7 0.25 0  7.25 0.25 0  7.5 0.25 0  7.75 0.25 0  8 0.25 0  8.25 0.25 0  8.5 0.25 0  8.75 0.25 0  9 0.25 0  9.25 0.25 0  9.5 0.25 0  9.75 0.25 0  10 0.25 0  10.25 0.25 0  10.5 0.25 0  10.75 0.25 0  11 0.25 0  11.25 0.25 0  11.5 0.25 0  11.75 0.25 0  12 0.25 0  12.25 0.25 0  12.5 0.25 0  12.75 0.25 0  13 0.25 0  13.25 0.25 0  13.5 0.25 0  13.75 0.25 0  14 0.25 0  14.25 0.25 0  14.5 0.25 0  14.75 0.25 0  15 0.25 0  15.25 0.25 0  15.5 0.25 0  15.75 0.25 0  16 0.25 0  16.25 0.25 0  16.5 0.25 0  16.75 0.25 0  17 0.25 0  17.25 0.25 0  17.5 0.25 0  17.75 0.25 0  18 0.25 0  18.25 0.25 0  18.5 0.25 0  18.75 0.25 0  19 0.25 0  19.25 0.25 0  19.5 0.25 0  19.75 0.25 0  20 0.25 0  20.25 0.25 0  20.5 0.25 0  20.75 0.25 0  21 0.25 0  21.25 0.25 0  21.5 0.25 0  21.75 0.25 0  22 0.25 0  22.25 0.25 0  22.5 0.25 0  22.75 0.25 0  23 0.25 0  23.25 0.25 0  23.5 0.25 0  23.75 0.25 0  24 0.25 0  24.25 0.25 0  24.5 0.25 0  24.75 0.25 0  25 0.25 0  0 0.5 0  0.25 0.5 0  0.5 0.5 0  0.75 0.5 0  1 0.5 0  1.25 0.5 0  1.5 0.5 0  1.75 0.5 0  2 0.5 0  2.25 0.5 0  2.5 0.5 0  2.75 0.5 0  3 0.5 0  3.25 0.5 0  3.5 0.5 0  3.75 0.5 0  4 0.5 0  4.25 0.5 0  4.5 0.5 0  4.75 0.5 0  5 0.5 0  5.25 0.5 0  5.5 0.5 0  5.75 0.5 0  6 0.5 0  6.25 0.5 0  6.5 0.5 0  6.75 0.5 0  7 0.5 0  7.25 0.5 0  7.5 0.5 0  7.75 0.5 0  8 0.5 0  8.25 0.5 0  8.5 0.5 0  8.75 0.5 0  9 0.5 0  9.25 0.5 0  9.5 0.5 0  9.75 0.5 0  10 0.5 0  10.25 0.5 0  10.5 0.5 0  10.75 0.5 0  11 0.5 0  11.25 0.5 0  11.5 0.5 0  11.75 0.5 0  12 0.5 0  12.25 0.5 0  12.5 0.5 0  12.75 0.5 0  13 0.5 0  13.25 0.5 0  13.5 0.5 0  13.75 0.5 0  14 0.5 0  14.25 0.5 0  14.5 0.5 0  14.75 0.5 0  15 0.5 0  15.25 0.5 0  15.5 0.5 0  15.75 0.5 0  16 0.5 0  16.25 0.5 0  16.5 0.5 0  16.75 0.5 0  17 0.5 0  17.25 0.5 0  17.5 0.5 0  17.75 0.5 0  18 0.5 0  18.25 0.5 0  18.5 0.5 0  18.75 0.5 0  19 0.5 0  19.25 0.5 0  19.5 0.5 0  19.75 0.5 0  20 0.5 0  20.25 0.5 0  20.5 0.5 0  20.75 0.5 0  21 0.5 0  21.25 0.5 0  21.5 0.5 0  21.75 0.5 0  22 0.5 0  22.25 0.5 0  22.5 0.5 0  22.75 0.5 0  23 0.5 0  23.25 0.5 0  23.5 0.5 0  23.75 0.5 0  24 0.5 0  24.25 0.5 0  24.5 0.5 0  24.75 0.5 0  25 0.5 0  0 0.75 0  0.25 0.75 0  0.5 0.75 0  0.75 0.75 0  1 0.75 0  1.25 0.75 0  1.5 0.75 0  1.75 0.75 0  2 0.75 0  2.25 0.75 0  2.5 0.75 0  2.75 0.75 0  3 0.75 0  3.25 0.75 0  3.5 0.75 0  3.75 0.75 0  4 0.75 0  4.25 0.75 0  4.5 0.75 0  4.75 0.75 0  5 0.75 0  5.25 0.75 0  5.5 0.75 0  5.75 0.75 0  6 0.75 0  6.25 0.75 0  6.5 0.75 0  6.75 0.75 0  7 0.75 0  7.25 0.75 0  7.5 0.75 0  7.75 0.75 0  8 0.75 0  8.25 0.75 0  8.5 0.75 0  8.75 0.75 0  9 0.75 0  9.25 0.75 0  9.5 0.75 0  9.75 0.75 0  10 0.75 0  10.25 0.75 0  10.5 0.75 0  10.75 0.75 0  11 0.75 0  11.25 0.75 0  11.5 0.75 0  11.75 0.75 0  12 0.75 0  12.25 0.75 0  12.5 0.75 0  12.75 0.75 0  13 0.75 0  13.25 0.75 0  13.5 0.75 0  13.75 0.75 0  14 0.75 0  14.25 0.75 0  14.5 0.75 0  14.75 0.75 0  15 0.75 0  15.25 0.75 0  15.5 0.75 0  15.75 0.75 0  16 0.75 0  16.25 0.75 0  16.5 0.75 0  16.75 0.75 0  17 0.75 0  17.25 0.75 0  17.5 0.75 0  17.75 0.75 0  18 0.75 0  18.25 0.75 0  18.5 0.75 0  18.75 0.75 0  19 0.75 0  19.25 0.75 0  19.5 0.75 0  19.75 0.75 0  20 0.75 0  20.25 0.75 0  20.5 0.75 0  20.75 0.75 0  21 0.75 0  21.25 0.75 0  21.5 0.75 0  21.75 0.75 0  22 0.75 0  22.25 0.75 0  22.5 0.75 0  22.75 0.75 0  23 0.75 0  23.25 0.75 0  23.5 0.75 0  23.75 0.75 0  24 0.75 0  24.25 0.75 0  24.5 0.75 0  24.75 0.75 0  25 0.75 0  0 1 0  0.25 1 0  0.5 1 0  0.75 1 0  1 1 0  1.25 1 0  1.5 1 0  1.75 1 0  2 1 0  2.25 1 0  2.5 1 0  2.75 1 0  3 1 0  3.25 1 0  3.5 1 0  3.75 1 0  4 1 0  4.25 1 0  4.5 1 0  4.75 1 0  5 1 0  5.25 1 0  5.5 1 0  5.75 1 0  6 1 0  6.25 1 0  6.5 1 0  6.75 1 0  7 1 0  7.25 1 0  7.5 1 0  7.75 1 0  8 1 0  8.25 1 0  8.5 1 0  8.75 1 0  9 1 0  9.25 1 0  9.5 1 0  9.75 1 0  10 1 0  10.25 1 0  10.5 1 0  10.75 1 0  11 1 0  11.25 1 0  11.5 1 0  11.75 1 0  12 1 0  12.25 1 0  12.5 1 0  12.75 1 0  13 1 0  13.25 1 0  13.5 1 0  13.75 1 0  14 1 0  14.25 1 0  14.5 1 0  14.75 1 0  15 1 0  15.25 1 0  15.5 1 0  15.75 1 0  16 1 0  16.25 1 0  16.5 1 0  16.75 1 0  17 1 0  17.25 1 0  17.5 1 0  17.75 1 0  18 1 0  18.25 1 0  18.5 1 0  18.75 1 0  19 1 0  19.25 1 0  19.5 1 0  19.75 1 0  20 1 0  20.25 1 0  20.5 1 0  20.75 1 0  21 1 0  21.25 1 0  21.5 1 0  21.75 1 0  22 1 0  22.25 1 0  22.5 1 0  22.75 1 0  23 1 0  23.25 1 0  23.5 1 0  23.75 1 0  24 1 0  24.25 1 0  24.5 1 0  24.75 1 0  25 1 0  0 1.25 0  0.25 1.25 0  0.5 1.25 0  0.75 1.25 0  1 1.25 0  1.25 1.25 0  1.5 1.25 0  1.75 1.25 0  2 1.25 0  2.25 1.25 0  2.5 1.25 0  2.75 1.25 0  3 1.25 0  3.25 1.25 0  3.5 1.25 0  3.75 1.25 0  4 1.25 0  4.25 1.25 0  4.5 1.25 0  4.75 1.25 0  5 1.25 0  5.25 1.25 0  5.5 1.25 0  5.75 1.25 0  6 1.25 0  6.25 1.25 0  6.5 1.25 0  6.75 1.25 0  7 1.25 0  7.25 1.25 0  7.5 1.25 0  7.75 1.25 0  8 1.25 0  8.25 1.25 0  8.5 1.25 0  8.75 1.25 0  9 1.25 0  9.25 1.25 0  9.5 1.25 0  9.75 1.25 0  10 1.25 0  10.25 1.25 0  10.5 1.25 0  10.75 1.25 0  11 1.25 0  11.25 1.25 0  11.5 1.25 0  11.75 1.25 0  12 1.25 0  12.25 1.25 0  12.5 1.25 0  12.75 1.25 0  13 1.25 0  13.25 1.25 0  13.5 1.25 0  13.75 1.25 0  14 1.25 0  14.25 1.25 0  14.5 1.25 0  14.75 1.25 0  15 1.25 0  15.25 1.25 0  15.5 1.25 0  15.75 1.25 0  16 1.25 0  16.25 1.25 0  16.5 1.25 0  16.75 1.25 0  17 1.25 0  17.25 1.25 0  17.5 1.25 0  17.75 1.25 0  18 1.25 0  18.25 1.25 0  18.5 1.25 0  18.75 1.25 0  19 1.25 0  19.25 1.25 0  19.5 1.25 0  19.75 1.25 0  20 1.25 0  20.25 1.25 0  20.5 1.25 0  20.75 1.25 0  21 1.25 0  21.25 1.25 0  21.5 1.25 0  21.75 1.25 0  22 1.25 0  22.25 1.25 0  22.5 1.25 0  22.75 1.25 0  23 1.25 0  23.25 1.25 0  23.5 1.25 0  23.75 1.25 0  24 1.25 0  24.25 1.25 0  24.5 1.25 0  24.75 1.25 0  25 1.25 0  0 1.5 0  0.25 1.5 0  0.5 1.5 0  0.75 1.5 0  1 1.5 0  1.25 1.5 0  1.5 1.5 0  1.75 1.5 0  2 1.5 0  2.25 1.5 0  2.5 1.5 0  2.75 1.5 0  3 1.5 0  3.25 1.5 0  3.5 1.5 0  3.75 1.5 0  4 1.5 0  4.25 1.5 0  4.5 1.5 0  4.75 1.5 0  5 1.5 0  5.25 1.5 0  5.5 1.5 0  5.75 1.5 0  6 1.5 0  6.25 1.5 0  6.5 1.5 0  6.75 1.5 0  7 1.5 0  7.25 1.5 0  7.5 1.5 0  7.75 1.5 0  8 1.5 0  8.25 1.5 0  8.5 1.5 0  8.75 1.5 0  9 1.5 0  9.25 1.5 0  9.5 1.5 0  9.75 1.5 0  10 1.5 0  10.25 1.5 0  10.5 1.5 0  10.75 1.5 0  11 1.5 0  11.25 1.5 0  11.5 1.5 0  11.75 1.5 0  12 1.5 0  12.25 1.5 0  12.5 1.5 0  12.75 1.5 0  13 1.5 0  13.25 1.5 0  13.5 1.5 0  13.75 1.5 0  14 1.5 0  14.25 1.5 0  14.5 1.5 0  14.75 1.5 0  15 1.5 0  15.25 1.5 0  15.5 1.5 0  15.75 1.5 0  16 1.5 0  16.25 1.5 0  16.5 1.5 0  16.75 1.5 0  17 1.5 0  17.25 1.5 0  17.5 1.5 0  17.75 1.5 0  18 1.5 0  18.25 1.5 0  18.5 1.5 0  18.75 1.5 0  19 1.5 0  19.25 1.5 0  19.5 1.5 0  19.75 1.5 0  20 1.5 0  20.25 1.5 0  20.5 1.5 0  20.75 1.5 0  21 1.5 0  21.25 1.5 0  21.5 1.5 0  21.75 1.5 0  22 1.5 0  22.25 1.5 0  22.5 1.5 0  22.75 1.5 0  23 1.5 0  23.25 1.5 0  23.5 1.5 0  23.75 1.5 0  24 1.5 0  24.25 1.5 0  24.5 1.5 0  24.75 1.5 0  25 1.5 0  0 1.75 0  0.25 1.75 0  0.5 1.75 0  0.75 1.75 0  1 1.75 0  1.25 1.75 0  1.5 1.75 0  1.75 1.75 0  2 1.75 0  2.25 1.75 0  2.5 1.75 0  2.75 1.75 0  3 1.75 0  3.25 1.75 0  3.5 1.75 0  3.75 1.75 0  4 1.75 0  4.25 1.75 0  4.5 1.75 0  4.75 1.75 0  5 1.75 0  5.25 1.75 0  5.5 1.75 0  5.75 1.75 0  6 1.75 0  6.25 1.75 0  6.5 1.75 0  6.75 1.75 0  7 1.75 0  7.25 1.75 0  7.5 1.75 0  7.75 1.75 0  8 1.75 0  8.25 1.75 0  8.5 1.75 0  8.75 1.75 0  9 1.75 0  9.25 1.75 0  9.5 1.75 0  9.75 1.75 0  10 1.75 0  10.25 1.75 0  10.5 1.75 0  10.75 1.75 0  11 1.75 0  11.25 1.75 0  11.5 1.75 0  11.75 1.75 0  12 1.75 0  12.25 1.75 0  12.5 1.75 0  12.75 1.75 0  13 1.75 0  13.25 1.75 0  13.5 1.75 0  13.75 1.75 0  14 1.75 0  14.25 1.75 0  14.5 1.75 0  14.75 1.75 0  15 1.75 0  15.25 1.75 0  15.5 1.75 0  15.75 1.75 0  16 1.75 0  16.25 1.75 0  16.5 1.75 0  16.75 1.75 0  17 1.75 0  17.25 1.75 0  17.5 1.75 0  17.75 1.75 0  18 1.75 0  18.25 1.75 0  18.5 1.75 0  18.75 1.75 0  19 1.75 0  19.25 1.75 0  19.5 1.75 0  19.75 1.75 0  20 1.75 0  20.25 1.75 0  20.5 1.75 0  20.75 1.75 0  21 1.75 0  21.25 1.75 0  21.5 1.75 0  21.75 1.75 0  22 1.75 0  22.25 1.75 0  22.5 1.75 0  22.75 1.75 0  23 1.75 0  23.25 1.75 0  23.5 1.75 0  23.75 1.75 0  24 1.75 0  24.25 1.75 0  24.5 1.75 0  24.75 1.75 0  25 1.75 0  0 2 0  0.25 2 0  0.5 2 0  0.75 2 0  1 2 0  1.25 2 0  1.5 2 0  1.75 2 0  2 2 0  2.25 2 0  2.5 2 0  2.75 2 0  3 2 0  3.25 2 0  3.5 2 0  3.75 2 0  4 2 0  4.25 2 0  4.5 2 0  4.75 2 0  5 2 0  5.25 2 0  5.5 2 0  5.75 2 0  6 2 0  6.25 2 0  6.5 2 0  6.75 2 0  7 2 0  7.25 2 0  7.5 2 0  7.75 2 0  8 2 0  8.25 2 0  8.5 2 0  8.75 2 0  9 2 0  9.25 2 0  9.5 2 0  9.75 2 0  10 2 0  10.25 2 0  10.5 2 0  10.75 2 0  11 2 0  11.25 2 0 
[...]
<PointData  Scalars="f_28"> 
<DataArray  type="Float64"  Name="f_28"  format="ascii">1.0034250676995523e-05  1.0034304276202230e-05  1.0034430785343714e-05  1.0034634549763412e-05  1.0034916185888890e-05  1.0035275096471561e-05  1.0035710096868108e-05  1.0036219596680800e-05  1.0036801664963364e-05  1.0037454060902454e-05  1.0038174253016889e-05  1.0038959434300842e-05  1.0039806536046181e-05  1.0040712241470225e-05  1.0041672999649351e-05  1.0042685039986708e-05  1.0043744387312446e-05  1.0044846877647533e-05  1.0045988174624813e-05  1.0047163786538603e-05  1.0048369083979975e-05  1.0049599318005315e-05  1.0050849638778922e-05  1.0052115114625368e-05  1.0053390751423399e-05  1.0054671512270129e-05  1.0055952337341773e-05  1.0057228163875314e-05  1.0058493946193957e-05  1.0059744675698226e-05  1.0060975400743836e-05  1.0062181246327201e-05  1.0063357433499529e-05  1.0064499298430835e-05  1.0065602311046078e-05  1.0066662093156750e-05  1.0067674436012821e-05  1.0068635317201805e-05  1.0069540916824020e-05  1.0070387632875698e-05  1.0071172095774576e-05  1.0071891181965921e-05  1.0072542026550555e-05  1.0073122034880387e-05  1.0073628893071224e-05  1.0074060577387101e-05  1.0074415362455202e-05  1.0074691828275369e-05  1.0074888865993473e-05  1.0075005682413215e-05  1.0075041803226546e-05  1.0074997074948446e-05  1.0074871665547558e-05  1.0074666063769977e-05  1.0074381077159210e-05  1.0074017828781161e-05  1.0073577752668657e-05  1.0073062588005714e-05  1.0072474372077201e-05  1.0071815432015001e-05  1.0071088375376880e-05  1.0070296079599337e-05  1.0069441680370403e-05  1.0068528558972904e-05  1.0067560328652921e-05  1.0066540820072101e-05  1.0065474065906107e-05  1.0064364284654841e-05  1.0063215863732945e-05  1.0062033341911864e-05  1.0060821391186886e-05  1.0059584798144646e-05  1.0058328444908092e-05  1.0057057289737221e-05  1.0055776347364739e-05  1.0054490669146519e-05  1.0053205323106865e-05  1.0051925373958729e-05  1.0050655863178671e-05  1.0049401789215906e-05  1.0048168087914087e-05  1.0046959613223717e-05  1.0045781118282235e-05  1.0044637236938171e-05  1.0043532465795436e-05  1.0042471146854161e-05  1.0041457450826245e-05  1.0040495361207786e-05  1.0039588659198878e-05  1.0038740909577437e-05  1.0037955447664620e-05  1.0037235367580024e-05  1.0036583512107800e-05  1.0036002464759998e-05  1.0035494545242566e-05  1.0035061811132648e-05  1.0034706073264725e-05  1.0034428947950436e-05  1.0034232028089351e-05  1.0034117501820532e-05  1.0034090664845405e-05  1.0034304276202230e-05  1.0034348118265299e-05  1.0034472207036674e-05  1.0034675277799240e-05  1.0034956688689936e-05  1.0035315530546969e-05  1.0035750530099793e-05  1.0036260067230441e-05  1.0036842199122974e-05  1.0037494679374892e-05  1.0038214973451891e-05  1.0039000272438403e-05  1.0039847506273673e-05  1.0040753357106470e-05  1.0041714273091067e-05  1.0042726482781313e-05  1.0043786010189722e-05  1.0044888690527647e-05  1.0046030186612638e-05  1.0047206005910232e-05  1.0048411518165079e-05  1.0049641973567682e-05  1.0050892521396755e-05  1.0052158229072405e-05  1.0053434101551660e-05  1.0054715100994821e-05  1.0055996166628842e-05  1.0057272234731931e-05  1.0058538258662247e-05  1.0059789228852424e-05  1.0061020192691067e-05  1.0062226274211998e-05  1.0063402693512196e-05  1.0064544785819720e-05  1.0065648020133809e-05  1.0066708017360442e-05  1.0067720567868228e-05  1.0068681648391407e-05  1.0069587438208952e-05  1.0070434334531433e-05  1.0071218967030269e-05  1.0071938211447233e-05  1.0072589202225827e-05  1.0073169344109939e-05  1.0073676322659591e-05  1.0074108113637955e-05  1.0074462991228703e-05  1.0074739535047682e-05  1.0074936635918141e-05  1.0075053500384094e-05  1.0075089653941978e-05  1.0075044942976332e-05  1.0074919535391011e-05  1.0074713919933206e-05  1.0074428904213292e-05  1.0074065611429357e-05  1.0073625475810961e-05  1.0073110236802268e-05  1.0072521932010306e-05  1.0071862888949376e-05  1.0071135715617918e-05  1.0070343289949048e-05  1.0069488748180817e-05  1.0068575472196686e-05  1.0067607075890985e-05  1.0066587390618013e-05  1.0065520449787133e-05  1.0064410472669447e-05  1.0063261847484652e-05  1.0062079113839314e-05  1.0060866944590047e-05  1.0059630127207067e-05  1.0058373544715146e-05  1.0057102156290287e-05  1.0055820977591290e-05  1.0054535060906057e-05  1.0053249475192688e-05  1.0051969286095452e-05  1.0050699536015433e-05  1.0049445224315120e-05  1.0048211287735561e-05  1.0047002581103787e-05  1.0045823858407425e-05  1.0044679754312575e-05  1.0043574766200538e-05  1.0042513236799055e-05  1.0041499337484898e-05  1.0040537052337743e-05  1.0039630163031765e-05  1.0038782234664010e-05  1.0037996602642109e-05  1.0037276360797910e-05  1.0036624350976603e-05  1.0036043154509483e-05  1.0035535086281732e-05  1.0035102192656138e-05  1.0034746255269743e-05  1.0034468802144856e-05  1.0034271114251921e-05  1.0034154120444592e-05  1.0034117501820532e-05  1.0034430785343714e-05  1.0034472207036674e-05  1.0034594696367084e-05  1.0034796992366518e-05  1.0035078085930769e-05  1.0035436855647686e-05  1.0035871926721138e-05  1.0036381630802677e-05  1.0036964000885204e-05  1.0037616777386142e-05  1.0038337417849404e-05  1.0039123108066035e-05  1.0039970774046141e-05  1.0040877094733062e-05  1.0041838515458615e-05  1.0042851262148343e-05  1.0043911356272639e-05  1.0045014630524090e-05  1.0046156745188191e-05  1.0047333205164395e-05  1.0048539377586431e-05  1.0049770509984735e-05  1.0051021748928836e-05  1.0052288159083624e-05  1.0053564742610125e-05  1.0054846458838740e-05  1.0056128244140691e-05  1.0057405031921683e-05  1.0058671772660369e-05  1.0059923453913240e-05  1.0061155120206935e-05  1.0062361892738654e-05  1.0063538988805495e-05  1.0064681740883949e-05  1.0065785615281623e-05  1.0066846230284429e-05  1.0067859373724011e-05  1.0068821019892098e-05  1.0069727345730731e-05  1.0070574746229911e-05  1.0071359848967250e-05  1.0072079527727392e-05  1.0072730915142760e-05  1.0073311414300988e-05  1.0073818709268736e-05  1.0074250774486055e-05  1.0074605882990281e-05  1.0074882613433385e-05  1.0075079855862004e-05  1.0075196816234645e-05  1.0075233019656223e-05  1.0075188312315619e-05  1.0075062862117761e-05  1.0074857158007491e-05  1.0074572007988232e-05  1.0074208535844350e-05  1.0073768176581720e-05  1.0073252670606749e-05  1.0072664056669551e-05  1.0072004663602428e-05  1.0071277100889942e-05  1.0070484248111884e-05  1.0069629243305242e-05  1.0068715470295713e-05  1.0067746545053578e-05  1.0066726301132719e-05  1.0065658774255103e-05  1.0064548186106475e-05  1.0063398927411865e-05  1.0062215540362218e-05  1.0061002700465720e-05  1.0059765197899298e-05  1.0058507918437402e-05  1.0057235824036401e-05  1.0055953933153804e-05  1.0054667300882171e-05  1.0053380998977730e-05  1.0052100095863774e-05  1.0050829636688544e-05  1.0049574623516772e-05  1.0048339995733220e-05  1.0047130610735679e-05  1.0045951224993761e-05  1.0044806475548771e-05  1.0043700862028946e-05  1.0042638729253636e-05  1.0041624250499785e-05  1.0040661411504747e-05  1.0039753995281539e-05  1.0038905567826648e-05  1.0038119464807180e-05  1.0037398779322842e-05  1.0036746350844285e-05  1.0036164755412001e-05  1.0035656297064657e-05  1.0035223000000117e-05  1.0034866599332636e-05  1.0034588522933262e-05  1.0034389840532139e-05  1.0034271114251921e-05  1.0034232028089351e-05  1.0034634549763412e-05  1.0034675277799240e-05  1.0034796992366518e-05  1.0034998802367063e-05  1.0035279699297212e-05  1.0035638494443967e-05  1.0036073756423581e-05  1.0036583779581586e-05  1.0037166573514667e-05  1.0037819863671398e-05  1.0038541097466737e-05  1.0039327453301928e-05  1.0040175851340910e-05  1.0041082965542438e-05  1.0042045236720551e-05  1.0043058886517443e-05  1.0044119932215994e-05  1.0045224202334112e-05  1.0046367352946390e-05  1.0047544884677408e-05  1.0048752160308117e-05  1.0049984422933556e-05  1.0051236814606879e-05  1.0052504395401758e-05  1.0053782162822575e-05  1.0055065071489551e-05  1.0056348053023975e-05  1.0057626036057108e-05  1.0058893966285066e-05  1.0060146826491043e-05  1.0061379656455648e-05  1.0062587572675911e-05  1.0063765787813565e-05  1.0064909629793739e-05  1.0066014560475965e-05  1.0067076193820617e-05  1.0068090313475413e-05  1.0069052889708546e-05  1.0069960095617251e-05  1.0070808322543260e-05  1.0071594194629562e-05  1.0072314582456141e-05  1.0072966615696124e-05  1.0073547694737577e-05  1.0074055501220548e-05  1.0074488007443423e-05  1.0074843484597458e-05  1.0075120509793353e-05  1.0075317971848993e-05  1.0075435075812802e-05  1.0075471346202799e-05  1.0075426628947011e-05  1.0075301092016732e-05  1.0075095224749829e-05  1.0074809835867205e-05  1.0074446050191221e-05  1.0074005304080726e-05  1.0073489339602914e-05  1.0072900197467823e-05  1.0072240208756653e-05  1.0071511985480306e-05  1.0070718410009538e-05  1.0069862623422893e-05  1.0068948012823100e-05  1.0067978197676864e-05  1.0066957015236863e-05  1.0065888505108511e-05  1.0064776893027195e-05  1.0063626573914823e-05  1.0062442094286997e-05  1.0061228134084544e-05  1.0059989488004922e-05  1.0058731046410742e-05  1.0057457775893735e-05  1.0056174699573497e-05  1.0054886877210820e-05  1.0053599385215687e-05  1.0052317296629920e-05  1.0051045661164078e-05  1.0049789485367612e-05  1.0048553713010282e-05  1.0047343205751842e-05  1.0046162724175577e-05  1.0045016909259820e-05  1.0043910264359968e-05  1.0042847137771716e-05  1.0041831705944323e-05  1.0040867957410448e-05  1.0039959677496054e-05  1.0039110433868838e-05  1.0038323562973763e-05  1.0037602157382570e-05  1.0036949054033881e-05  1.0036366823221905e-05  1.0035857757910823e-05  1.0035423862296525e-05  1.0035066837070200e-05  1.0034788055872595e-05  1.0034588522933262e-05  1.0034468802144856e-05  1.0034428947950436e-05  1.0034916185888890e-05  1.0034956688689936e-05  1.0035078085930769e-05  1.0035279699297212e-05  1.0035560587359720e-05  1.0035919560756686e-05  1.0036355168127064e-05  1.0036865682956876e-05  1.0037449097816919e-05  1.0038103125046362e-05  1.0038825201868207e-05  1.0039612498427206e-05  1.0040461927835613e-05  1.0041370157710426e-05  1.0042333622911332e-05  1.0043348539307096e-05  1.0044410918457502e-05  1.0045516583126517e-05  1.0046661183555197e-05  1.0047840214427849e-05  1.0049049032465960e-05  1.0050282874583673e-05  1.0051536876536843e-05  1.0052806091995780e-05  1.0054085511969793e-05  1.0055370084509685e-05  1.0056654734612756e-05  1.0057934384253371e-05  1.0059203972460988e-05  1.0060458475366752e-05  1.0061692926139103e-05  1.0062902434728785e-05  1.0064082207343606e-05  1.0065227565573926e-05  1.0066333965090555e-05  1.0067397013838011e-05  1.0068412489647590e-05  1.0069376357196638e-05  1.0070284784242649e-05  1.0071134157063465e-05  1.0071921095037812e-05  1.0072642464303747e-05  1.0073295390436165e-05  1.0073877270088558e-05  1.0074385781548414e-05  1.0074818894160183e-05  1.0075174876574553e-05  1.0075452303787790e-05  1.0075650062940100e-05  1.0075767357847463e-05  1.0075803712246833e-05  1.0075758971740410e-05  1.0075633304430361e-05  1.0075427200241217e-05  1.0075141468933042e-05  1.0074777236814218e-05  1.0074335942168532e-05  1.0073819329416870e-05  1.0073229442039398e-05  1.0072568614289542e-05  1.0071839461736256e-05  1.0071044870676109e-05  1.0070187986461514e-05  1.0069272200795889e-05  1.0068301138050852e-05  1.0067278640664429e-05  1.0066208753682934e-05  1.0065095708512443e-05  1.0063943905948789e-05  1.0062757898557586e-05  1.0061542372478087e-05  1.0060302128726605e-05  1.0059042064076753e-05  1.0057767151594993e-05  1.0056482420910877e-05  1.0055192938301829e-05  1.0053903786672553e-05  1.0052620045509001e-05  1.0051346770886412e-05  1.0050088975610175e-05  1.0048851609567222e-05  1.0047639540364388e-05  1.0046457534328527e-05  1.0045310237941266e-05  1.0044202159779020e-05  1.0043137653026137e-05  1.0042120898625548e-05  1.0041155889126549e-05  1.0040246413282449e-05  1.0039396041439527e-05  1.0038608111739442e-05  1.0037885717121790e-05  1.0037231693047119e-05  1.0036648605734936e-05  1.0036138740478164e-05  1.0035704089189517e-05  1.0035346335731960e-05  1.0035066837070200e-05  1.0034866599332636e-05  1.0034746255269743e-05  1.0034706073264725e-05  1.0035275096471561e-05  1.0035315530546969e-05  1.0035436855647686e-05  1.0035638494443967e-05  1.0035919560756686e-05  1.0036278882840610e-05  1.0036715007608403e-05  1.0037226199505467e-05  1.0037810440436241e-05  1.0038465432546175e-05  1.0039188603832194e-05  1.0039977116087227e-05  1.0040827874698574e-05  1.0041737539942691e-05  1.0042702539530419e-05  1.0043719082233676e-05  1.0044783172471743e-05  1.0045890625762333e-05  1.0047037084957044e-05  1.0048218037187961e-05  1.0049428831455116e-05  1.0050664696785064e-05  1.0051920760890280e-05  1.0053192069257702e-05  1.0054473604593318e-05  1.0055760306548091e-05  1.0057047091649059e-05  1.0058328873358169e-05  1.0059600582180352e-05  1.0060857185741535e-05  1.0062093708756818e-05  1.0063305252808863e-05  1.0064487015856631e-05  1.0065634311395192e-05  1.0066742587188063e-05  1.0067807443494790e-05  1.0068824650717995e-05  1.0069790166396061e-05  1.0070700151469871e-05  1.0071550985754627e-05  1.0072339282550804e-05  1.0073061902331561e-05  1.0073715965447588e-05  1.0074298863794368e-05  1.0074808271391019e-05  1.0075242153824518e-05  1.0075598776517820e-05  1.0075876711785473e-05  1.0076074844645587e-05  1.0076192377362431e-05  1.0076228832699469e-05  1.0076184055868480e-05  1.0076058215166054e-05  1.0075851801294715e-05  1.0075565625371735e-05  1.0075200815634554e-05  1.0074758812857533e-05  1.0074241364500474e-05  1.0073650517614861e-05  1.0072988610539309e-05  1.0072258263420843e-05  1.0071462367603728e-05  1.0070604073932304e-05  1.0069686780018888e-05  1.0068714116531931e-05  1.0067689932563698e-05  1.0066618280140256e-05  1.0065503397939918e-05  1.0064349694289258e-05  1.0063161729508368e-05  1.0061944197679356e-05  1.0060701907913967e-05  1.0059439765197714e-05  1.0058162750889181e-05  1.0056875902953939e-05  1.0055584296012999e-05  1.0054293021285947e-05  1.0053007166508635e-05  1.0051731795904867e-05  1.0050471930290606e-05  1.0049232527388164e-05  1.0048018462426208e-05  1.0046834509099712e-05  1.0045685320961582e-05  1.0044575413314979e-05  1.0043509145671865e-05  1.0042490704838757e-05  1.0041524088684515e-05  1.0040613090636183e-05  1.0039761284935460e-05  1.0038972012667381e-05  1.0038248368539022e-05  1.0037593188331685e-05  1.0037009036865878e-05  1.0036498196199215e-05  1.0036062653646668e-05  1.0035704089189517e-05  1.0035423862296525e-05  1.0035223000000117e-05  1.0035102192656138e-05  1.0035061811132648e-05  1.0035710096868108e-05  1.0035750530099793e-05  1.0035871926721138e-05  1.0036073756423581e-05  1.0036355168127064e-05  1.0036715007608403e-05  1.0037151826289724e-05  1.0037663885748925e-05  1.0038249161534991e-05  1.0038905348069052e-05  1.0039629865227412e-05  1.0040419866647393e-05  1.0041272249603711e-05  1.0042183666269391e-05  1.0043150536195538e-05  1.0044169059874550e-05  1.0045235233276600e-05  1.0046344863266768e-05  1.0047493583821176e-05  1.0048676872966531e-05  1.0049890070370477e-05  1.0051128395511041e-05  1.0052386966353242e-05  1.0053660818460001e-05  1.0054944924463247e-05  1.0056234213819783e-05  1.0057523592775133e-05  1.0058807964457467e-05  1.0060082249022675e-05  1.0061341403770955e-05  1.0062580443154790e-05  1.0063794458598080e-05  1.0064978638046296e-05  1.0066128285168050e-05  1.0067238838129319e-05  1.0068305887862744e-05  1.0069325195755965e-05  1.0070292710684890e-05  1.0071204585320060e-05  1.0072057191636883e-05  1.0072847135563522e-05  1.0073571270703507e-05  1.0074226711073814e-05  1.0074810842803127e-05  1.0075321334739232e-05  1.0075756147919096e-05  1.0076113543859941e-05  1.0076392091634720e-05  1.0076590673700652e-05  1.0076708490454919e-05  1.0076745063497270e-05  1.0076700237584977e-05  1.0076574181271463e-05  1.0076367386225767e-05  1.0076080665235955e-05  1.0075715148905423e-05  1.0075272281056931e-05  1.0074753812864887e-05  1.0074161795742034e-05  1.0073498573012168e-05  1.0072766770405729e-05  1.0071969285420159e-05  1.0071109275591782e-05  1.0070190145730396e-05  1.0069215534172092e-05  1.0068189298109733e-05  1.0067115498064179e-05  1.0065998381562565e-05  1.0064842366093043e-05  1.0063652021407826e-05  1.0062432051248798e-05  1.0061187274571704e-05  1.0059922606346565e-05  1.0058643038013094e-05  1.0057353617670678e-05  1.0056059430083040e-05  1.0054765576577663e-05  1.0053477154919998e-05  1.0052199239241716e-05  1.0050936860101503e-05  1.0049694984755519e-05  1.0048478497713057e-05  1.0047292181650862e-05  1.0046140698757111e-05  1.0045028572572911e-05  1.0043960170395334e-05  1.0042939686301093e-05  1.0041971124843392e-05  1.0041058285465676e-05  1.0040204747663563e-05  1.0039413856908816e-05  1.0038688711324732e-05  1.0038032149070011e-05  1.0037446736350512e-05  1.0036934755950324e-05  1.0036498196199215e-05  1.0036138740478164e-05  1.0035857757910823e-05  1.0035656297064657e-05  1.0035535086281732e-05  1.0035494545242566e-05  1.0036219596680802e-05  1.0036260067230441e-05  1.0036381630802677e-05  1.0036583779581586e-05  1.0036865682956876e-05  1.0037226199505467e-05  1.0037663885748927e-05  1.0038177002702022e-05  1.0038763521785096e-05  1.0039421131233516e-05  1.0040147243591745e-05  1.0040939004506087e-05  1.0041793302832788e-05  1.0042706781993523e-05  1.0043675852483674e-05  1.0044696705436885e-05  1.0045765327155446e-05  1.0046877514523112e-05  1.0048028891222398e-05  1.0049214924681884e-05  1.0050430943680765e-05  1.0051672156538379e-05  1.0052933669816072e-05  1.0054210507457803e-05  1.0055497630294815e-05  1.0056789955838314e-05  1.0058082378282982e-05  1.0059369788642932e-05  1.0060647094940820e-05  1.0061909242370125e-05  1.0063151233350174e-05  1.0064368147393276e-05  1.0065555160703617e-05  1.0066707565427932e-05  1.0067820788478929e-05  1.0068890409853538e-05  1.0069912180369702e-05  1.0070882038747251e-05  1.0071796127960749e-05  1.0072650810794805e-05  1.0073442684535300e-05  1.0074168594733344e-05  1.0074825647982421e-05  1.0075411223653112e-05  1.0075922984534124e-05  1.0076358886332864e-05  1.0076717185993606e-05  1.0076996448796456e-05  1.0077195554205467e-05  1.0077313700439881e-05  1.0077350407748018e-05  1.0077305520369160e-05  1.0077179207174653e-05  1.0076971960985363e-05  1.0076684596568590e-05  1.0076318247323510e-05  1.0075874360670012e-05  1.0075354692161691e-05  1.0074761298349306e-05  1.0074096528426528e-05  1.0073363014695122e-05  1.0072563661891684e-05  1.0071701635422958e-05  1.0070780348561212e-05  1.0069803448655464e-05  1.0068774802418251e-05  1.0067698480351310e-05  1.0066578740376782e-05  1.0065420010743522e-05  1.0064226872280733e-05  1.0063004040073321e-05  1.0061756344635299e-05  1.0060488712659068e-05  1.0059206147419557e-05  1.0057913708912993e-05  1.0056616493810500e-05  1.0055319615306797e-05  1.0054028182944004e-05  1.0052747282489897e-05  1.0051481955948987e-05  1.0050237181783461e-05  1.0049017855419241e-05  1.0047828770110342e-05  1.0046674598232015e-05  1.0045559873070007e-05  1.0044488971169369e-05  1.0043466095301379e-05  1.0042495258101089e-05  1.0041580266420284e-05  1.0040724706430954e-05  1.0039931929502230e-05  1.0039205038859941e-05  1.0038546877024637e-05  1.0037960014018502e-05  1.0037446736350512e-05  1.0037009036865878e-05  1.0036648605734936e-05  1.0036366823221905e-05  1.0036164755412001e-05  1.0036043154509483e-05  1.0036002464759998e-05  1.0036801664963364e-05  1.0036842199122974e-05  1.0036964000885204e-05  1.0037166573514668e-05  1.0037449097816919e-05  1.0037810440436243e-05  1.0038249161534991e-05  1.0038763521785096e-05  1.0039351489225136e-05  1.0040010746570253e-05  1.0040738699379164e-05  1.0041532485288633e-05  1.0042388984388092e-05  1.0043304830726806e-05  1.0044276424905593e-05  1.0045299947687789e-05  1.0046371374558103e-05  1.0047486491156974e-05  1.0048640909518422e-05  1.0049830085039950e-05  1.0051049334113101e-05  1.0052293852342868e