<?xml version="1.0"?>
<VTKFile type="UnstructuredGrid"  version="0.1"  >
<UnstructuredGrid>
<Piece  NumberOfPoints="10201" NumberOfCells="20000">
<Points>
<DataArray  type="Float64"  NumberOfComponents="3"  format="ascii">0 0 0  0.25 0 0  0.5 0 0  0.75 0 0  1 0 0  1.25 0 0  1.5 0 0  1.75 0 0  2 0 0  2.25 0 0  2.5 0 0  2.75 0 0  3 0 0  3.25 0 0  3.5 0 0  3.75 0 0  4 0 0  4.25 0 0  4.5 0 0  4.75 0 0  5 0 0  5.25 0 0  5.5 0 0  5.75 0 0  6 0 0  6.25 0 0  6.5 0 0  6.75 0 0  7 0 0  7.25 0 0  7.5 0 0  7.75 0 0  8 0 0  8.25 0 0  8.5 0 0  8.75 0 0  9 0 0  9.25 0 0  9.5 0 0  9.75 0 0  10 0 0  10.25 0 0  10.5 0 0  10.75 0 0  11 0 0  11.25 0 0  11.5 0 0  11.75 0 0  12 0 0  12.25 0 0  12.5 0 0  12.75 0 0  13 0 0  13.25 0 0  13.5 0 0  13.75 0 0  14 0 0  14.25 0 0  14.5 0 0  14.75 0 0  15 0 0  15.25 0 0  15.5 0 0  15.75 0 0  16 0 0  16.25 0 0  16.5 0 0  16.75 0 0  17 0 0  17.25 0 0  17.5 0 0  17.75 0 0  18 0 0  18.25 0 0  18.5 0 0  18.75 0 0  19 0 0  19.25 0 0  19.5 0 0  19.75 0 0  20 0 0  20.25 0 0  20.5 0 0  20.75 0 0  21 0 0  21.25 0 0  21.5 0 0  21.75 0 0  22 0 0  22.25 0 0  22.5 0 0  22.75 0 0  23 0 0  23.25 0 0  23.5 0 0  23.75 0 0  24 0 0  24.25 0 0  24.5 0 0  24.75 0 0  25 0 0  0 0.25 0  0.25 0.25 0  0.5 0.25 0  0.75 0.25 0  1 0.25 0  1.25 0.25 0  1.5 0.25 0  1.75 0.25 0  2 0.25 0  2.25 0.25 0  2.5 0.25 0  2.75 0.25 0  3 0.25 0  3.25 0.25 0  3.5 0.25 0  3.75 0.25 0  4 0.25 0  4.25 0.25 0  4.5 0.25 0  4.75 0.25 0  5 0.25 0  5.25 0.25 0  5.5 0.25 0  5.75 0.25 0  6 0.25 0  6.25 0.25 0  6.5 0.25 0  6.75 0.25 0  7 0.25 0  7.25 0.25 0  7.5 0.25 0  7.75 0.25 0  8 0.25 0  8.25 0.25 0  8.5 0.25 0  8.75 0.25 0  9 0.25 0  9.25 0.25 0  9.5 0.25 0  9.75 0.25 0  10 0.25 0  10.25 0.25 0  10.5 0.25 0  10.75 0.25 0  11 0.25 0  11.25 0.25 0  11.5 0.25 0  11.75 0.25 0  12 0.25 0  12.25 0.25 0  12.5 0.25 0  12.75 0.25 0  13 0.25 0  13.25 0.25 0  13.5 0.25 0  13.75 0.25 0  14 0.25 0  14.25 0.25 0  14.5 0.25 0  14.75 0.25 0  15 0.25 0  15.25 0.25 0  15.5 0.25 0  15.75 0.25 0  16 0.25 0  16.25 0.25 0  16.5 0.25 0  16.75 0.25 0  17 0.25 0  17.25 0.25 0  17.5 0.25 0  17.75 0.25 0  18 0.25 0  18.25 0.25 0  18.5 0.25 0  18.75 0.25 0  19 0.25 0  19.25 0.25 0  19.5 0.25 0  19.75 0.25 0  20 0.25 0  20.25 0.25 0  20.5 0.25 0  20.75 0.25 0  21 0.25 0  21.25 0.25 0  21.5 0.25 0  21.75 0.25 0  22 0.25 0  22.25 0.25 0  22.5 0.25 0  22.75 0.25 0  23 0.25 0  23.25 0.25 0  23.5 0.25 0  23.75 0.25 0  24 0.25 0  24.25 0.25 0  24.5 0.25 0  24.75 0.25 0  25 0.25 0  0 0.5 0  0.25 0.5 0  0.5 0.5 0  0.75 0.5 0  1 0.5 0  1.25 0.5 0  1.5 0.5 0  1.75 0.5 0  2 0.5 0  2.25 0.5 0  2.5 0.5 0  2.75 0.5 0  3 0.5 0  3.25 0.5 0  3.5 0.5 0  3.75 0.5 0  4 0.5 0  4.25 0.5 0  4.5 0.5 0  4.75 0.5 0  5 0.5 0  5.25 0.5 0  5.5 0.5 0  5.75 0.5 0  6 0.5 0  6.25 0.5 0  6.5 0.5 0  6.75 0.5 0  7 0.5 0  7.25 0.5 0  7.5 0.5 0  7.75 0.5 0  8 0.5 0  8.25 0.5 0  8.5 0.5 0  8.75 0.5 0  9 0.5 0  9.25 0.5 0  9.5 0.5 0  9.75 0.5 0  10 0.5 0  10.25 0.5 0  10.5 0.5 0  10.75 0.5 0  11 0.5 0  11.25 0.5 0  11.5 0.5 0  11.75 0.5 0  12 0.5 0  12.25 0.5 0  12.5 0.5 0  12.75 0.5 0  13 0.5 0  13.25 0.5 0  13.5 0.5 0  13.75 0.5 0  14 0.5 0  14.25 0.5 0  14.5 0.5 0  14.75 0.5 0  15 0.5 0  15.25 0.5 0  15.5 0.5 0  15.75 0.5 0  16 0.5 0  16.25 0.5 0  16.5 0.5 0  16.75 0.5 0  17 0.5 0  17.25 0.5 0  17.5 0.5 0  17.75 0.5 0  18 0.5 0  18.25 0.5 0  18.5 0.5 0  18.75 0.5 0  19 0.5 0  19.25 0.5 0  19.5 0.5 0  19.75 0.5 0  20 0.5 0  20.25 0.5 0  20.5 0.5 0  20.75 0.5 0  21 0.5 0  21.25 0.5 0  21.5 0.5 0  21.75 0.5 0  22 0.5 0  22.25 0.5 0  22.5 0.5 0  22.75 0.5 0  23 0.5 0  23.25 0.5 0  23.5 0.5 0  23.75 0.5 0  24 0.5 0  24.25 0.5 0  24.5 0.5 0  24.75 0.5 0  25 0.5 0  0 0.75 0  0.25 0.75 0  0.5 0.75 0  0.75 0.75 0  1 0.75 0  1.25 0.75 0  1.5 0.75 0  1.75 0.75 0  2 0.75 0  2.25 0.75 0  2.5 0.75 0  2.75 0.75 0  3 0.75 0  3.25 0.75 0  3.5 0.75 0  3.75 0.75 0  4 0.75 0  4.25 0.75 0  4.5 0.75 0  4.75 0.75 0  5 0.75 0  5.25 0.75 0  5.5 0.75 0  5.75 0.75 0  6 0.75 0  6.25 0.75 0  6.5 0.75 0  6.75 0.75 0  7 0.75 0  7.25 0.75 0  7.5 0.75 0  7.75 0.75 0  8 0.75 0  8.25 0.75 0  8.5 0.75 0  8.75 0.75 0  9 0.75 0  9.25 0.75 0  9.5 0.75 0  9.75 0.75 0  10 0.75 0  10.25 0.75 0  10.5 0.75 0  10.75 0.75 0  11 0.75 0  11.25 0.75 0  11.5 0.75 0  11.75 0.75 0  12 0.75 0  12.25 0.75 0  12.5 0.75 0  12.75 0.75 0  13 0.75 0  13.25 0.75 0  13.5 0.75 0  13.75 0.75 0  14 0.75 0  14.25 0.75 0  14.5 0.75 0  14.75 0.75 0  15 0.75 0  15.25 0.75 0  15.5 0.75 0  15.75 0.75 0  16 0.75 0  16.25 0.75 0  16.5 0.75 0  16.75 0.75 0  17 0.75 0  17.25 0.75 0  17.5 0.75 0  17.75 0.75 0  18 0.75 0  18.25 0.75 0  18.5 0.75 0  18.75 0.75 0  19 0.75 0  19.25 0.75 0  19.5 0.75 0  19.75 0.75 0  20 0.75 0  20.25 0.75 0  20.5 0.75 0  20.75 0.75 0  21 0.75 0  21.25 0.75 0  21.5 0.75 0  21.75 0.75 0  22 0.75 0  22.25 0.75 0  22.5 0.75 0  22.75 0.75 0  23 0.75 0  23.25 0.75 0  23.5 0.75 0  23.75 0.75 0  24 0.75 0  24.25 0.75 0  24.5 0.75 0  24.75 0.75 0  25 0.75 0  0 1 0  0.25 1 0  0.5 1 0  0.75 1 0  1 1 0  1.25 1 0  1.5 1 0  1.75 1 0  2 1 0  2.25 1 0  2.5 1 0  2.75 1 0  3 1 0  3.25 1 0  3.5 1 0  3.75 1 0  4 1 0  4.25 1 0  4.5 1 0  4.75 1 0  5 1 0  5.25 1 0  5.5 1 0  5.75 1 0  6 1 0  6.25 1 0  6.5 1 0  6.75 1 0  7 1 0  7.25 1 0  7.5 1 0  7.75 1 0  8 1 0  8.25 1 0  8.5 1 0  8.75 1 0  9 1 0  9.25 1 0  9.5 1 0  9.75 1 0  10 1 0  10.25 1 0  10.5 1 0  10.75 1 0  11 1 0  11.25 1 0  11.5 1 0  11.75 1 0  12 1 0  12.25 1 0  12.5 1 0  12.75 1 0  13 1 0  13.25 1 0  13.5 1 0  13.75 1 0  14 1 0  14.25 1 0  14.5 1 0  14.75 1 0  15 1 0  15.25 1 0  15.5 1 0  15.75 1 0  16 1 0  16.25 1 0  16.5 1 0  16.75 1 0  17 1 0  17.25 1 0  17.5 1 0  17.75 1 0  18 1 0  18.25 1 0  18.5 1 0  18.75 1 0  19 1 0  19.25 1 0  19.5 1 0  19.75 1 0  20 1 0  20.25 1 0  20.5 1 0  20.75 1 0  21 1 0  21.25 1 0  21.5 1 0  21.75 1 0  22 1 0  22.25 1 0  22.5 1 0  22.75 1 0  23 1 0  23.25 1 0  23.5 1 0  23.75 1 0  24 1 0  24.25 1 0  24.5 1 0  24.75 1 0  25 1 0  0 1.25 0  0.25 1.25 0  0.5 1.25 0  0.75 1.25 0  1 1.25 0  1.25 1.25 0  1.5 1.25 0  1.75 1.25 0  2 1.25 0  2.25 1.25 0  2.5 1.25 0  2.75 1.25 0  3 1.25 0  3.25 1.25 0  3.5 1.25 0  3.75 1.25 0  4 1.25 0  4.25 1.25 0  4.5 1.25 0  4.75 1.25 0  5 1.25 0  5.25 1.25 0  5.5 1.25 0  5.75 1.25 0  6 1.25 0  6.25 1.25 0  6.5 1.25 0  6.75 1.25 0  7 1.25 0  7.25 1.25 0  7.5 1.25 0  7.75 1.25 0  8 1.25 0  8.25 1.25 0  8.5 1.25 0  8.75 1.25 0  9 1.25 0  9.25 1.25 0  9.5 1.25 0  9.75 1.25 0  10 1.25 0  10.25 1.25 0  10.5 1.25 0  10.75 1.25 0  11 1.25 0  11.25 1.25 0  11.5 1.25 0  11.75 1.25 0  12 1.25 0  12.25 1.25 0  12.5 1.25 0  12.75 1.25 0  13 1.25 0  13.25 1.25 0  13.5 1.25 0  13.75 1.25 0  14 1.25 0  14.25 1.25 0  14.5 1.25 0  14.75 1.25 0  15 1.25 0  15.25 1.25 0  15.5 1.25 0  15.75 1.25 0  16 1.25 0  16.25 1.25 0  16.5 1.25 0  16.75 1.25 0  17 1.25 0  17.25 1.25 0  17.5 1.25 0  17.75 1.25 0  18 1.25 0  18.25 1.25 0  18.5 1.25 0  18.75 1.25 0  19 1.25 0  19.25 1.25 0  19.5 1.25 0  19.75 1.25 0  20 1.25 0  20.25 1.25 0  20.5 1.25 0  20.75 1.25 0  21 1.25 0  21.25 1.25 0  21.5 1.25 0  21.75 1.25 0  22 1.25 0  22.25 1.25 0  22.5 1.25 0  22.75 1.25 0  23 1.25 0  23.25 1.25 0  23.5 1.25 0  23.75 1.25 0  24 1.25 0  24.25 1.25 0  24.5 1.25 0  24.75 1.25 0  25 1.25 0  0 1.5 0  0.25 1.5 0  0.5 1.5 0  0.75 1.5 0  1 1.5 0  1.25 1.5 0  1.5 1.5 0  1.75 1.5 0  2 1.5 0  2.25 1.5 0  2.5 1.5 0  2.75 1.5 0  3 1.5 0  3.25 1.5 0  3.5 1.5 0  3.75 1.5 0  4 1.5 0  4.25 1.5 0  4.5 1.5 0  4.75 1.5 0  5 1.5 0  5.25 1.5 0  5.5 1.5 0  5.75 1.5 0  6 1.5 0  6.25 1.5 0  6.5 1.5 0  6.75 1.5 0  7 1.5 0  7.25 1.5 0  7.5 1.5 0  7.75 1.5 0  8 1.5 0  8.25 1.5 0  8.5 1.5 0  8.75 1.5 0  9 1.5 0  9.25 1.5 0  9.5 1.5 0  9.75 1.5 0  10 1.5 0  10.25 1.5 0  10.5 1.5 0  10.75 1.5 0  11 1.5 0  11.25 1.5 0  11.5 1.5 0  11.75 1.5 0  12 1.5 0  12.25 1.5 0  12.5 1.5 0  12.75 1.5 0  13 1.5 0  13.25 1.5 0  13.5 1.5 0  13.75 1.5 0  14 1.5 0  14.25 1.5 0  14.5 1.5 0  14.75 1.5 0  15 1.5 0  15.25 1.5 0  15.5 1.5 0  15.75 1.5 0  16 1.5 0  16.25 1.5 0  16.5 1.5 0  16.75 1.5 0  17 1.5 0  17.25 1.5 0  17.5 1.5 0  17.75 1.5 0  18 1.5 0  18.25 1.5 0  18.5 1.5 0  18.75 1.5 0  19 1.5 0  19.25 1.5 0  19.5 1.5 0  19.75 1.5 0  20 1.5 0  20.25 1.5 0  20.5 1.5 0  20.75 1.5 0  21 1.5 0  21.25 1.5 0  21.5 1.5 0  21.75 1.5 0  22 1.5 0  22.25 1.5 0  22.5 1.5 0  22.75 1.5 0  23 1.5 0  23.25 1.5 0  23.5 1.5 0  23.75 1.5 0  24 1.5 0  24.25 1.5 0  24.5 1.5 0  24.75 1.5 0  25 1.5 0  0 1.75 0  0.25 1.75 0  0.5 1.75 0  0.75 1.75 0  1 1.75 0  1.25 1.75 0  1.5 1.75 0  1.75 1.75 0  2 1.75 0  2.25 1.75 0  2.5 1.75 0  2.75 1.75 0  3 1.75 0  3.25 1.75 0  3.5 1.75 0  3.75 1.75 0  4 1.75 0  4.25 1.75 0  4.5 1.75 0  4.75 1.75 0  5 1.75 0  5.25 1.75 0  5.5 1.75 0  5.75 1.75 0  6 1.75 0  6.25 1.75 0  6.5 1.75 0  6.75 1.75 0  7 1.75 0  7.25 1.75 0  7.5 1.75 0  7.75 1.75 0  8 1.75 0  8.25 1.75 0  8.5 1.75 0  8.75 1.75 0  9 1.75 0  9.25 1.75 0  9.5 1.75 0  9.75 1.75 0  10 1.75 0  10.25 1.75 0  10.5 1.75 0  10.75 1.75 0  11 1.75 0  11.25 1.75 0  11.5 1.75 0  11.75 1.75 0  12 1.75 0  12.25 1.75 0  12.5 1.75 0  12.75 1.75 0  13 1.75 0  13.25 1.75 0  13.5 1.75 0  13.75 1.75 0  14 1.75 0  14.25 1.75 0  14.5 1.75 0  14.75 1.75 0  15 1.75 0  15.25 1.75 0  15.5 1.75 0  15.75 1.75 0  16 1.75 0  16.25 1.75 0  16.5 1.75 0  16.75 1.75 0  17 1.75 0  17.25 1.75 0  17.5 1.75 0  17.75 1.75 0  18 1.75 0  18.25 1.75 0  18.5 1.75 0  18.75 1.75 0  19 1.75 0  19.25 1.75 0  19.5 1.75 0  19.75 1.75 0  20 1.75 0  20.25 1.75 0  20.5 1.75 0  20.75 1.75 0  21 1.75 0  21.25 1.75 0  21.5 1.75 0  21.75 1.75 0  22 1.75 0  22.25 1.75 0  22.5 1.75 0  22.75 1.75 0  23 1.75 0  23.25 1.75 0  23.5 1.75 0  23.75 1.75 0  24 1.75 0  24.25 1.75 0  24.5 1.75 0  24.75 1.75 0  25 1.75 0  0 2 0  0.25 2 0  0.5 2 0  0.75 2 0  1 2 0  1.25 2 0  1.5 2 0  1.75 2 0  2 2 0  2.25 2 0  2.5 2 0  2.75 2 0  3 2 0  3.25 2 0  3.5 2 0  3.75 2 0  4 2 0  4.25 2 0  4.5 2 0  4.75 2 0  5 2 0  5.25 2 0  5.5 2 0  5.75 2 0  6 2 0  6.25 2 0  6.5 2 0  6.75 2 0  7 2 0  7.25 2 0  7.5 2 0  7.75 2 0  8 2 0  8.25 2 0  8.5 2 0  8.75 2 0  9 2 0  9.25 2 0  9.5 2 0  9.75 2 0  10 2 0  10.25 2 0  10.5 2 0  10.75 2 0  11 2 0  11.25 2 0 
[...]
<PointData  Scalars="f_29"> 
<DataArray  type="Float64"  Name="f_29"  format="ascii">2.6810038778695906e-14  4.9775674417453251e-14  9.1265824717904337e-14  1.6526105894758297e-13  2.9553178633277558e-13  5.2192630462039943e-13  9.1030198766141756e-13  1.5679532713582728e-12  2.6671783612119617e-12  4.4806634190034676e-12  7.4336807031097797e-12  1.2179705951406443e-11  1.9707930537134758e-11  3.1493183326385451e-11  4.9700804499253924e-11  7.7460731690275021e-11  1.1922603200422712e-10  1.8123075704801961e-10  2.7205958915838537e-10  4.0333646731402018e-10  5.9053040235473552e-10  8.5386330800816040e-10  1.2192864872228475e-09  1.7194695483182150e-09  2.3947188680695142e-09  3.2937141240622471e-09  4.4739238444744961e-09  6.0015384285879003e-09  7.9507466391328128e-09  1.0402184593232963e-08  1.3440410007387302e-08  1.7150303000668857e-08  2.1612370111979930e-08  2.6897029180886614e-08  3.3058074269613659e-08  4.0125652425359266e-08  4.8099214246261702e-08  5.6941011223154874e-08  6.6570786564652133e-08  7.6862325512132774e-08  8.7642482562749618e-08  9.8693179543676260e-08  1.0975667181720712e-07  1.2054412170672756e-07  1.3074722005075689e-07  1.4005228835908832e-07  1.4815601014397099e-07  1.5478171610513613e-07  1.5969501519327198e-07  1.6271754438964260e-07  1.6373771375091689e-07  1.6271754439055414e-07  1.5969501519506351e-07  1.5478171610774639e-07  1.4815601014731219e-07  1.4005228836305150e-07  1.3074722005521726e-07  1.2054412171155155e-07  1.0975667182225839e-07  9.8693179548822276e-08  8.7642482567866981e-08  7.6862325517111912e-08  6.6570786569400309e-08  5.6941011227598786e-08  4.8099214250347829e-08  4.0125652429053488e-08  3.3058074272899591e-08  2.6897029183763499e-08  2.1612370114460059e-08  1.7150303002774836e-08  1.3440410009149195e-08  1.0402184594685750e-08  7.9507466403138513e-09  6.0015384295347797e-09  4.4739238452232534e-09  3.2937141246461965e-09  2.3947188685186158e-09  1.7194695486588610e-09  1.2192864874777548e-09  8.5386330819638814e-10  5.9053040249188878e-10  4.0333646741262533e-10  2.7205958922833310e-10  1.8123075709698444e-10  1.1922603203805545e-10  7.7460731713339854e-11  4.9700804514773843e-11  3.1493183336692134e-11  1.9707930543890326e-11  1.2179705955776829e-11  7.4336807059003899e-12  4.4806634207621982e-12  2.6671783623061019e-12  1.5679532720299253e-12  9.1030198806901262e-13  5.2192630486282929e-13  2.9553178647988554e-13  1.6526105902235217e-13  9.1265824791544679e-14  4.9775674375571590e-14  2.6810038967663115e-14  4.9775674417453238e-14  9.2413807140389836e-14  1.6944466199680070e-13  3.0682464503754076e-13  5.4868603658843575e-13  9.6901141843102669e-13  1.6900719745915856e-12  2.9110711799401636e-12  4.9518988867327255e-12  8.3188258117678309e-12  1.3801414907823577e-11  2.2612913037326549e-11  3.6589858667329609e-11  5.8470427663596095e-11  9.2274803220586718e-11  1.4381404578664656e-10  2.2135574569337941e-10  3.3647407947531702e-10  5.0510741837500246e-10  7.4883683522329548e-10  1.0963821856697510e-09  1.5852875925556459e-09  2.2637343961287490e-09  3.1923771815283175e-09  4.4460490026987260e-09  6.1151288326487123e-09  8.3063130755979244e-09  1.1142491212466723e-08  1.4761402532348782e-08  1.9312756520061230e-08  2.4953543524661610e-08  3.1841352469698530e-08  4.0125652264288474e-08  4.9937181079580063e-08  6.1375813284857263e-08  7.4497520063537942e-08  8.9301281392882892e-08  1.0571701317081480e-07  1.2359571017084477e-07  1.4270304133678035e-07  1.6271754371929664e-07  1.8323433211223226e-07  2.0377487631965492e-07  2.2380291862847254e-07  2.4274605045336771e-07  2.6002189448204657e-07  2.7506731155635657e-07  2.8736863584167645e-07  2.9649069555042134e-07  3.0210234086298359e-07  3.0399639324055340e-07  3.0210234086119179e-07  2.9649069554690536e-07  2.8736863583656720e-07  2.7506731154984051e-07  2.6002189447435397e-07  2.4274605044475947e-07  2.2380291861922537e-07  2.0377487631004663e-07  1.8323433210252886e-07  1.6271754370974060e-07  1.4270304132758109e-07  1.2359571016217311e-07  1.0571701316279960e-07  8.9301281385610876e-08  7.4497520057056234e-08  6.1375813279178238e-08  4.9937181074686654e-08  4.0125652260140037e-08  3.1841352466237295e-08  2.4953543521818343e-08  1.9312756517760804e-08  1.4761402530514843e-08  1.1142491211025761e-08  8.3063130744819982e-09  6.1151288317970562e-09  4.4460490020581896e-09  3.1923771810534380e-09  2.2637343957815635e-09  1.5852875923052957e-09  1.0963821854917183e-09  7.4883683509844932e-10  5.0510741828865711e-10  3.3647407941640997e-10  2.2135574565373427e-10  1.4381404576032640e-10  9.2274803203349192e-11  5.8470427652458470e-11  3.6589858660229620e-11  2.2612913032860982e-11  1.3801414905052454e-11  8.3188258100710492e-12  4.9518988857076322e-12  2.9110711793289127e-12  1.6900719742324202e-12  9.6901141822138508e-13  5.4868603647164879e-13  3.0682464496222097e-13  1.6944466197893187e-13  9.2413807084322488e-14  4.9775674375571590e-14  9.1265824717904211e-14  1.6944466199680070e-13  3.1068402408997430e-13  5.6257608994050822e-13  1.0060392802995830e-12  1.7767238183543323e-12  3.0988191417468860e-12  5.3375733288591321e-12  9.0795180850609604e-12  1.5252922390472695e-11  2.5305483638210747e-11  4.1461741763655554e-11  6.7089068477685627e-11  1.0720802616723233e-10  1.6918979240608379e-10  2.6368919469465251e-10  4.0586521298348809e-10  6.1693959423816314e-10  9.2613602279987549e-10  1.3730243173508522e-09  2.0102635597425357e-09  2.9066925025745074e-09  4.1506536908377652e-09  5.8533598967184001e-09  8.1520207204678604e-09  1.1212349868853431e-08  1.5229979755627886e-08  2.0430233492224186e-08  2.7065661947543336e-08  3.5410763855551418e-08  4.5753387725744043e-08  5.8382479579515872e-08  7.3572097045032334e-08  9.1561954142478566e-08  1.1253517479324492e-07  1.3659438455249450e-07  1.6373771316501451e-07  1.9383665843665135e-07  2.2661801292120631e-07  2.6165212061975932e-07  2.9834956548623665e-07  3.3596797320398027e-07  3.7362993822246032e-07  4.1035220912308224e-07  4.4508525031913374e-07  4.7676124813724498e-07  5.0434766288123654e-07  5.2690266630643388e-07  5.4362835235558973e-07  5.5391754369213646e-07  5.5739036961721624e-07  5.5391754369389861e-07  5.4362835235904997e-07  5.2690266631146960e-07  5.0434766288767102e-07  4.7676124814486107e-07  4.4508525032768301e-07  4.1035220913230044e-07  3.7362993823207954e-07  3.3596797321374121e-07  2.9834956549590103e-07  2.6165212062911739e-07  2.2661801293008444e-07  1.9383665844491567e-07  1.6373771317257092e-07  1.3659438455928596e-07  1.1253517479924814e-07  9.1561954147698778e-08  7.3572097049499573e-08  5.8382479583279371e-08  4.5753387728867332e-08  3.5410763858106526e-08  2.7065661949605024e-08  2.0430233493865180e-08  1.5229979756915588e-08  1.1212349869849133e-08  8.1520207212266713e-09  5.8533598972888305e-09  4.1506536912610030e-09  2.9066925028844131e-09  2.0102635599663691e-09  1.3730243175103186e-09  9.2613602291198401e-10  6.1693959431595203e-10  4.0586521303675573e-10  2.6368919473064696e-10  1.6918979243008806e-10  1.0720802618303299e-10  6.7089068487951403e-11  4.1461741770238483e-11  2.5305483642377505e-11  1.5252922393076071e-11  9.0795180866666860e-12  5.3375733298364218e-12  3.0988191423350579e-12  1.7767238187009547e-12  1.0060392805089522e-12  5.6257609004512133e-13  3.1068402418789523e-13  1.6944466197893170e-13  9.1265824791544603e-14  1.6526105894758302e-13  3.0682464503754096e-13  5.6257608994050782e-13  1.0186936965891962e-12  1.8217017958789410e-12  3.2172312096091434e-12  5.6112365651668350e-12  9.6650966907475476e-12  1.6440883298585495e-11  2.7619474363567193e-11  4.5822311207658774e-11  7.5077515271633506e-11  1.2148260900132068e-10  1.9412865642925696e-10  3.0636313581661625e-10  4.7747944730395247e-10  7.3492695747151160e-10  1.1171332857125583e-09  1.6770156881301492e-09  2.4862258498681577e-09  3.6401170497241799e-09  5.2633401653415275e-09  7.5158628799001003e-09  1.0599065508043329e-08  1.4761402538654633e-08  2.0302942729605856e-08  2.7577930618290239e-08  3.6994373650110271e-08  4.9009582369909789e-08  6.4120609771949439e-08  8.2848682171085886e-08  1.0571701321947857e-07  1.3322185717195140e-07  1.6579728004320331e-07  2.0377487641702691e-07  2.4734047716680527e-07  2.9649069569783594e-07  3.5099284459676143e-07  4.1035220908938938e-07  4.7379078267025123e-07  5.4024127076083985e-07  6.0835940713585360e-07  6.7655641559305487e-07  7.4305185782347261e-07  8.0594527039540841e-07  8.6330309253799398e-07  9.1325563640148632e-07  9.5409747135487391e-07  9.8438377618114336e-07  1.0030150947596383e-06  1.0093035701171926e-06  1.0030150947603005e-06  9.8438377618244567e-07  9.5409747135677741e-07  9.1325563640392895e-07  8.6330309254090238e-07  8.0594527039869659e-07  7.4305185782704687e-07  6.7655641559681919e-07  6.0835940713971427e-07  5.4024127076470984e-07  4.7379078267405070e-07  4.1035220909304396e-07  3.5099284460020769e-07  2.9649069570102539e-07  2.4734047716970795e-07  2.0377487641963080e-07  1.6579728004550922e-07  1.3322185717396859e-07  1.0571701322121999e-07  8.2848682172565626e-08  6.4120609773183275e-08  4.9009582370918883e-08  3.6994373650922489e-08  2.7577930618937226e-08  2.0302942730116905e-08  1.4761402539053524e-08  1.0599065508349631e-08  7.5158628801313982e-09  5.2633401655138292e-09  3.6401170498510508e-09  2.4862258499603929e-09  1.6770156881962426e-09  1.1171332857592574e-09  7.3492695750408080e-10  4.7747944732637340e-10  3.0636313583184273e-10  1.9412865643945858e-10  1.2148260900806582e-10  7.5077515276034805e-11  4.5822311210492521e-11  2.7619474365367493e-11  1.6440883299714451e-11  9.6650966914455782e-12  5.6112365655944575e-12  3.2172312098629283e-12  1.8217017960403381e-12  1.0186936966568889e-12  5.6257609004512122e-13  3.0682464496222102e-13  1.6526105902235214e-13  2.9553178633277548e-13  5.4868603658843575e-13  1.0060392802995834e-12  1.8217017958789414e-12  3.2576989964889180e-12  5.7532856951258006e-12  1.0034419337322893e-11  1.7283825410744471e-11  2.9400777418315678e-11  4.9391143007745594e-11  8.1942773276969377e-11  1.3425904652040726e-10  2.1724399368196646e-10  3.4715491342754575e-10  5.4786073240334779e-10  8.5386330509450065e-10  1.3142495754590984e-09  1.9977385936831539e-09  2.9989608270001728e-09  4.4460490045526280e-09  6.5095207606496198e-09  9.4122858162616382e-09  1.3440409960063950e-08  1.8954016045540151e-08  2.6397408371523324e-08  3.6307191608216925e-08  4.9316851475730866e-08  6.6156016417363460e-08  8.7642482247126574e-08  1.1466511510340182e-07  1.4815600960597849e-07  1.8905081427505376e-07  2.3823696688535886e-07  2.9649069569980233e-07  3.6440498215220909e-07  4.4231214245983411e-07  5.3020612046893267e-07  6.2767080770624530e-07  7.3382151940771041e-07  8.4726696803225560e-07  9.6609854016949103e-07  1.0879123216645095e-06  1.2098671479252994e-06  1.3287791103090833e-06  1.4412496625618327e-06  1.5438210713722115e-06  1.6331498256092222e-06  1.7061861507884676e-06  1.7603463130411828e-06  1.7936641853595992e-06  1.8049096921208492e-06  1.7936641853615749e-06  1.7603463130450654e-06  1.7061861507941281e-06  1.6331498256164724e-06  1.5438210713808165e-06  1.4412496625715281e-06  1.3287791103195827e-06  1.2098671479363100e-06  1.0879123216757359e-06  9.6609854018065767e-07  8.4726696804312790e-07  7.3382151941810403e-07  6.2767080771601942e-07  5.3020612047797210e-07  4.4231214246804741e-07  3.6440498215953143e-07  2.9649069570620568e-07  2.3823696689085579e-07  1.8905081427969957e-07  1.4815600960986245e-07  1.1466511510662457e-07  8.7642482249776622e-08  6.6156016419508994e-08  4.9316851477432456e-08  3.6307191609540844e-08  2.6397408372540260e-08  1.8954016046314240e-08  1.3440409960646462e-08  9.4122858166932942e-09  6.5095207609645697e-09  4.4460490047794740e-09  2.9989608271616016e-09  1.9977385937965112e-09  1.3142495755375964e-09  8.5386330514814249e-10  5.4786073243953621e-10  3.4715491345163935e-10  2.1724399369779505e-10  1.3425904653067042e-10  8.1942773283537993e-11  4.9391143011894506e-11  2.9400777420902447e-11  1.7283825412335323e-11  1.0034419338291470e-11  5.7532856956997897e-12  3.2576989968465774e-12  1.8217017960403373e-12  1.0060392805089520e-12  5.4868603647164889e-13  2.9553178647988539e-13  5.2192630462039973e-13  9.6901141843102669e-13  1.7767238183543319e-12  3.2172312096091422e-12  5.7532856951257998e-12  1.0160636794684899e-11  1.7721367534113603e-11  3.0524239839165257e-11  5.1923481060884506e-11  8.7227628101427213e-11  1.4471569835670717e-10  2.3710927639989560e-10  3.8366551438540776e-10  6.1309574628132950e-10  9.6755388329283453e-10  1.5079722049454261e-09  2.3210411061452447e-09  3.5281224219921574e-09  5.2963390555048924e-09  7.8519808506634628e-09  1.1496191856471719e-08  1.6622643590877027e-08  2.3736544856658729e-08  3.3473893535645565e-08  4.6619356832979125e-08  6.4120609772169561e-08  8.7096424939484970e-08  1.1683536855603595e-07  1.5478171554197550e-07  2.0250525513943245e-07  2.6165212060030874e-07  3.3387472157112566e-07  4.2074032472085850e-07  5.2361979425939872e-07  6.4356036985007495e-07  7.8114894123953234e-07  9.3637481290836941e-07  1.1085031131175803e-06  1.2959714371751014e-06  1.4963226904518304e-06  1.7061861507775381e-06  1.9213163660908748e-06  2.1366956746549797e-06  2.3467011088264980e-06  2.5453306384705454e-06  2.7264777056703482e-06  2.8842374755157291e-06  3.0132238690800305e-06  3.1088738622400625e-06  3.1677151604711711e-06  3.1875753787578785e-06  3.1677151604740993e-06  3.1088738622458257e-06  3.0132238690884335e-06  2.8842374755264966e-06  2.7264777056831426e-06  2.5453306384849640e-06  2.3467011088421114e-06  2.1366956746713757e-06  1.9213163661076638e-06  1.7061861507943405e-06  1.4963226904682478e-06  1.2959714371907472e-06  1.1085031131321552e-06  9.3637481292170785e-07  7.8114894125159261e-07  6.4356036986089029e-07  5.2361979426902737e-07  4.2074032472933878e-07  3.3387472157845551e-07  2.6165212060647213e-07  2.0250525514446557e-07  1.5478171554600825e-07  1.1683536855925549e-07  8.7096424942059288e-08  6.4120609774209429e-08  4.6619356834560853e-08  3.3473893536845520e-08  2.3736544857557384e-08  1.6622643591544611e-08  1.1496191856961701e-08  7.8519808510173919e-09  5.2963390557568127e-09  3.5281224221693010e-09  2.3210411062682622e-09  1.5079722050296792e-09  9.6755388334975821e-10  6.1309574631929554e-10  3.8366551441040092e-10  2.3710927641613036e-10  1.4471569836711447e-10  8.7227628108012126e-11  5.1923481064997093e-11  3.0524239841698407e-11  1.7721367535658569e-11  1.0160636795601148e-11  5.7532856956997897e-12  3.2172312098629287e-12  1.7767238187009549e-12  9.6901141822138528e-13  5.2192630486282939e-13  9.1030198766141715e-13  1.6900719745915848e-12  3.0988191417468865e-12  5.6112365651668366e-12  1.0034419337322897e-11  1.7721367534113603e-11  3.0908187510783595e-11  5.3237930241938932e-11  9.0560769971764126e-11  1.5213543087398426e-10  2.5240151088509921e-10  4.1354697719581990e-10  6.6915860963934047e-10  1.0693124134821941e-09  1.6875298587425358e-09  2.6300841389200383e-09  4.0481736858500971e-09  6.1534680757479984e-09  9.2374496681946768e-09  1.3694795054377266e-08  2.0050735524510790e-08  2.8991881356881355e-08  4.1399377213621660e-08  5.8382479575676629e-08  8.1309742030320929e-08  1.1183402332383033e-07  1.5190659684467537e-07  2.0377487641722906e-07  2.6995785048679788e-07  3.5319341950930695e-07  4.5635263703727518e-07  5.8231750340689799e-07  7.3382151940388066e-07  9.1325563640208496e-07  1.1224463658051647e-06  1.3624173136248584e-06  1.6331498255945177e-06  1.9333621973839299e-06  2.2603294080768739e-06  2.6097659903476088e-06  2.9757930010114174e-06  3.3510058631853079e-06  3.7266531738230049e-06  4.0929278038782236e-06  4.4393614939179874e-06  4.7553036755380318e-06  5.0304556094185636e-06  5.2554233288077946e-06  5.4222483731104467e-06  5.5248746447903742e-06  5.5595132441887639e-06  5.5248746447951939e-06  5.4222483731199284e-06  5.2554233288216250e-06  5.0304556094362776e-06  4.7553036755590832e-06  4.4393614939417628e-06  4.0929278039040243e-06  3.7266531738500023e-06  3.3510058632126836e-06  2.9757930010385619e-06  2.6097659903742040e-06  2.2603294081027139e-06  1.9333621974086900e-06  1.6331498256176967e-06  1.3624173136459097e-06  1.1224463658236506e-06  9.1325563641782633e-07  7.3382151941704418e-07  5.8231750341795251e-07  4.5635263704674379e-07  3.5319341951748786e-07  2.6995785049370258e-07  2.0377487642279981e-07  1.5190659684900918e-07  1.1183402332717369e-07  8.1309742032916688e-08  5.8382479577679372e-08  4.1399377215132700e-08  2.8991881357997513e-08  2.0050735525326367e-08  1.3694795054968089e-08  9.2374496686167242e-09  6.1534680760447420e-09  4.0481736860560237e-09  2.6300841390612331e-09  1.6875298588380479e-09  1.0693124135459199e-09  6.6915860968130924e-10  4.1354697722310301e-10  2.5240151090260080e-10  1.5213543088506308e-10  9.0560769978687498e-11  5.3237930246205969e-11  3.0908187513387360e-11  1.7721367535658569e-11  1.0034419338291470e-11  5.6112365655944599e-12  3.0988191423350571e-12  1.6900719742324200e-12  9.1030198806901222e-13  1.5679532713582730e-12  2.9110711799401636e-12  5.3375733288591329e-12  9.6650966907475460e-12  1.7283825410744474e-11  3.0524239839165257e-11  5.3237930241938919e-11  9.1699884228289960e-11  1.5598675764243789e-10  2.6204627668209405e-10  4.3474998411876702e-10  7.1231563209646698e-10  1.1525949028331684e-09  1.8418414103345544e-09  2.9066925024147697e-09  4.5301988629786197e-09  6.9727928309946295e-09  1.0599065508059051e-08  1.5911081841225698e-08  2.3588654091314168e-08  3.4536468978610320e-08  4.9937181101882579e-08  7.1308521581402703e-08  1.0056113364497786e-07  1.4005228785021488e-07  1.9262895730432509e-07  2.6165212059955017e-07  3.5099284459704223e-07  4.6498997094079175e-07  6.0835940713587488e-07  7.8604641076791369e-07  1.0030150947549440e-06  1.2639737883752552e-06  1.5730407953120760e-06  1.9333621973804203e-06  2.3467011088160024e-06  2.8130253985020284e-06  3.3301273897278908e-06  3.8933133594022792e-06  4.4952017873237644e-06  5.1256664644737601e-06  5.7719533480143459e-06  6.4189885490362527e-06  7.0498797391914730e-06  7.6465958234745286e-06  8.1907916880696184e-06  8.6647282285636722e-06  9.0522247696436856e-06  9.3395732292727917e-06  9.5163422582153399e-06  9.5760056512172493e-06  9.5163422582229751e-06  9.3395732292877910e-06  9.0522247696655865e-06  8.6647282285917818e-06  8.1907916881029458e-06  7.6465958235119590e-06  7.0498797392321306e-06  6.4189885490795565e-06  5.7719533480594479e-06  5.1256664645190027e-06  4.4952017873670342e-06  3.8933133594419999e-06  3.3301273897636818e-06  2.8130253985345087e-06  2.3467011088461890e-06  1.9333621974091169e-06  1.5730407953393488e-06  1.2639737884002263e-06  1.0030150947762539e-06  7.8604641078476848e-07  6.0835940714873358e-07  4.6498997095092454e-07  3.5099284460548021e-07  2.6165212060659129e-07  1.9262895730991387e-07  1.4005228785445200e-07  1.0056113364816388e-07  7.1308521583817594e-08  4.9937181103694906e-08  3.4536468979938038e-08  2.3588654092270236e-08  1.5911081841908314e-08  1.0599065508541037e-08  6.9727928313296253e-09  4.5301988632081789e-09  2.9066925025701978e-09  1.8418414104384210e-09  1.1525949029016209e-09  7.1231563214099329e-10  4.3474998414735764e-10  2.6204627670020884e-10  1.5598675765376574e-10  9.1699884235277103e-11  5.3237930246206001e-11  3.0524239841698420e-11  1.7283825412335326e-11  9.6650966914455734e-12  5.3375733298364210e-12  2.9110711793289143e-12  1.5679532720299253e-12  2.6671783612119592e-12  4.9518988867327214e-12  9.0795180850609588e-12  1.6440883298585498e-11  2.9400777418315685e-11  5.1923481060884506e-11  9.0560769971764177e-11  1.5598675764243789e-10  2.6534241307461081e-10  4.4575573236428048e-10  7.3953463495036647e-10  1.2116897071764100e-09  1.9606299755016706e-09  3.1330777798386387e-09  4.9444505053688232e-09  7.7061278545505338e-09  1.1861120159216554e-08  1.8029617774913896e-08  2.7065661945806753e-08  4.0125652282027580e-08  5.8748512735001453e-08  8.4946006545478319e