<?xml version="1.0"?>
<VTKFile type="UnstructuredGrid"  version="0.1"  >
<UnstructuredGrid>
<Piece  NumberOfPoints="10201" NumberOfCells="20000">
<Points>
<DataArray  type="Float64"  NumberOfComponents="3"  format="ascii">0 0 0  0.25 0 0  0.5 0 0  0.75 0 0  1 0 0  1.25 0 0  1.5 0 0  1.75 0 0  2 0 0  2.25 0 0  2.5 0 0  2.75 0 0  3 0 0  3.25 0 0  3.5 0 0  3.75 0 0  4 0 0  4.25 0 0  4.5 0 0  4.75 0 0  5 0 0  5.25 0 0  5.5 0 0  5.75 0 0  6 0 0  6.25 0 0  6.5 0 0  6.75 0 0  7 0 0  7.25 0 0  7.5 0 0  7.75 0 0  8 0 0  8.25 0 0  8.5 0 0  8.75 0 0  9 0 0  9.25 0 0  9.5 0 0  9.75 0 0  10 0 0  10.25 0 0  10.5 0 0  10.75 0 0  11 0 0  11.25 0 0  11.5 0 0  11.75 0 0  12 0 0  12.25 0 0  12.5 0 0  12.75 0 0  13 0 0  13.25 0 0  13.5 0 0  13.75 0 0  14 0 0  14.25 0 0  14.5 0 0  14.75 0 0  15 0 0  15.25 0 0  15.5 0 0  15.75 0 0  16 0 0  16.25 0 0  16.5 0 0  16.75 0 0  17 0 0  17.25 0 0  17.5 0 0  17.75 0 0  18 0 0  18.25 0 0  18.5 0 0  18.75 0 0  19 0 0  19.25 0 0  19.5 0 0  19.75 0 0  20 0 0  20.25 0 0  20.5 0 0  20.75 0 0  21 0 0  21.25 0 0  21.5 0 0  21.75 0 0  22 0 0  22.25 0 0  22.5 0 0  22.75 0 0  23 0 0  23.25 0 0  23.5 0 0  23.75 0 0  24 0 0  24.25 0 0  24.5 0 0  24.75 0 0  25 0 0  0 0.25 0  0.25 0.25 0  0.5 0.25 0  0.75 0.25 0  1 0.25 0  1.25 0.25 0  1.5 0.25 0  1.75 0.25 0  2 0.25 0  2.25 0.25 0  2.5 0.25 0  2.75 0.25 0  3 0.25 0  3.25 0.25 0  3.5 0.25 0  3.75 0.25 0  4 0.25 0  4.25 0.25 0  4.5 0.25 0  4.75 0.25 0  5 0.25 0  5.25 0.25 0  5.5 0.25 0  5.75 0.25 0  6 0.25 0  6.25 0.25 0  6.5 0.25 0  6.75 0.25 0  7 0.25 0  7.25 0.25 0  7.5 0.25 0  7.75 0.25 0  8 0.25 0  8.25 0.25 0  8.5 0.25 0  8.75 0.25 0  9 0.25 0  9.25 0.25 0  9.5 0.25 0  9.75 0.25 0  10 0.25 0  10.25 0.25 0  10.5 0.25 0  10.75 0.25 0  11 0.25 0  11.25 0.25 0  11.5 0.25 0  11.75 0.25 0  12 0.25 0  12.25 0.25 0  12.5 0.25 0  12.75 0.25 0  13 0.25 0  13.25 0.25 0  13.5 0.25 0  13.75 0.25 0  14 0.25 0  14.25 0.25 0  14.5 0.25 0  14.75 0.25 0  15 0.25 0  15.25 0.25 0  15.5 0.25 0  15.75 0.25 0  16 0.25 0  16.25 0.25 0  16.5 0.25 0  16.75 0.25 0  17 0.25 0  17.25 0.25 0  17.5 0.25 0  17.75 0.25 0  18 0.25 0  18.25 0.25 0  18.5 0.25 0  18.75 0.25 0  19 0.25 0  19.25 0.25 0  19.5 0.25 0  19.75 0.25 0  20 0.25 0  20.25 0.25 0  20.5 0.25 0  20.75 0.25 0  21 0.25 0  21.25 0.25 0  21.5 0.25 0  21.75 0.25 0  22 0.25 0  22.25 0.25 0  22.5 0.25 0  22.75 0.25 0  23 0.25 0  23.25 0.25 0  23.5 0.25 0  23.75 0.25 0  24 0.25 0  24.25 0.25 0  24.5 0.25 0  24.75 0.25 0  25 0.25 0  0 0.5 0  0.25 0.5 0  0.5 0.5 0  0.75 0.5 0  1 0.5 0  1.25 0.5 0  1.5 0.5 0  1.75 0.5 0  2 0.5 0  2.25 0.5 0  2.5 0.5 0  2.75 0.5 0  3 0.5 0  3.25 0.5 0  3.5 0.5 0  3.75 0.5 0  4 0.5 0  4.25 0.5 0  4.5 0.5 0  4.75 0.5 0  5 0.5 0  5.25 0.5 0  5.5 0.5 0  5.75 0.5 0  6 0.5 0  6.25 0.5 0  6.5 0.5 0  6.75 0.5 0  7 0.5 0  7.25 0.5 0  7.5 0.5 0  7.75 0.5 0  8 0.5 0  8.25 0.5 0  8.5 0.5 0  8.75 0.5 0  9 0.5 0  9.25 0.5 0  9.5 0.5 0  9.75 0.5 0  10 0.5 0  10.25 0.5 0  10.5 0.5 0  10.75 0.5 0  11 0.5 0  11.25 0.5 0  11.5 0.5 0  11.75 0.5 0  12 0.5 0  12.25 0.5 0  12.5 0.5 0  12.75 0.5 0  13 0.5 0  13.25 0.5 0  13.5 0.5 0  13.75 0.5 0  14 0.5 0  14.25 0.5 0  14.5 0.5 0  14.75 0.5 0  15 0.5 0  15.25 0.5 0  15.5 0.5 0  15.75 0.5 0  16 0.5 0  16.25 0.5 0  16.5 0.5 0  16.75 0.5 0  17 0.5 0  17.25 0.5 0  17.5 0.5 0  17.75 0.5 0  18 0.5 0  18.25 0.5 0  18.5 0.5 0  18.75 0.5 0  19 0.5 0  19.25 0.5 0  19.5 0.5 0  19.75 0.5 0  20 0.5 0  20.25 0.5 0  20.5 0.5 0  20.75 0.5 0  21 0.5 0  21.25 0.5 0  21.5 0.5 0  21.75 0.5 0  22 0.5 0  22.25 0.5 0  22.5 0.5 0  22.75 0.5 0  23 0.5 0  23.25 0.5 0  23.5 0.5 0  23.75 0.5 0  24 0.5 0  24.25 0.5 0  24.5 0.5 0  24.75 0.5 0  25 0.5 0  0 0.75 0  0.25 0.75 0  0.5 0.75 0  0.75 0.75 0  1 0.75 0  1.25 0.75 0  1.5 0.75 0  1.75 0.75 0  2 0.75 0  2.25 0.75 0  2.5 0.75 0  2.75 0.75 0  3 0.75 0  3.25 0.75 0  3.5 0.75 0  3.75 0.75 0  4 0.75 0  4.25 0.75 0  4.5 0.75 0  4.75 0.75 0  5 0.75 0  5.25 0.75 0  5.5 0.75 0  5.75 0.75 0  6 0.75 0  6.25 0.75 0  6.5 0.75 0  6.75 0.75 0  7 0.75 0  7.25 0.75 0  7.5 0.75 0  7.75 0.75 0  8 0.75 0  8.25 0.75 0  8.5 0.75 0  8.75 0.75 0  9 0.75 0  9.25 0.75 0  9.5 0.75 0  9.75 0.75 0  10 0.75 0  10.25 0.75 0  10.5 0.75 0  10.75 0.75 0  11 0.75 0  11.25 0.75 0  11.5 0.75 0  11.75 0.75 0  12 0.75 0  12.25 0.75 0  12.5 0.75 0  12.75 0.75 0  13 0.75 0  13.25 0.75 0  13.5 0.75 0  13.75 0.75 0  14 0.75 0  14.25 0.75 0  14.5 0.75 0  14.75 0.75 0  15 0.75 0  15.25 0.75 0  15.5 0.75 0  15.75 0.75 0  16 0.75 0  16.25 0.75 0  16.5 0.75 0  16.75 0.75 0  17 0.75 0  17.25 0.75 0  17.5 0.75 0  17.75 0.75 0  18 0.75 0  18.25 0.75 0  18.5 0.75 0  18.75 0.75 0  19 0.75 0  19.25 0.75 0  19.5 0.75 0  19.75 0.75 0  20 0.75 0  20.25 0.75 0  20.5 0.75 0  20.75 0.75 0  21 0.75 0  21.25 0.75 0  21.5 0.75 0  21.75 0.75 0  22 0.75 0  22.25 0.75 0  22.5 0.75 0  22.75 0.75 0  23 0.75 0  23.25 0.75 0  23.5 0.75 0  23.75 0.75 0  24 0.75 0  24.25 0.75 0  24.5 0.75 0  24.75 0.75 0  25 0.75 0  0 1 0  0.25 1 0  0.5 1 0  0.75 1 0  1 1 0  1.25 1 0  1.5 1 0  1.75 1 0  2 1 0  2.25 1 0  2.5 1 0  2.75 1 0  3 1 0  3.25 1 0  3.5 1 0  3.75 1 0  4 1 0  4.25 1 0  4.5 1 0  4.75 1 0  5 1 0  5.25 1 0  5.5 1 0  5.75 1 0  6 1 0  6.25 1 0  6.5 1 0  6.75 1 0  7 1 0  7.25 1 0  7.5 1 0  7.75 1 0  8 1 0  8.25 1 0  8.5 1 0  8.75 1 0  9 1 0  9.25 1 0  9.5 1 0  9.75 1 0  10 1 0  10.25 1 0  10.5 1 0  10.75 1 0  11 1 0  11.25 1 0  11.5 1 0  11.75 1 0  12 1 0  12.25 1 0  12.5 1 0  12.75 1 0  13 1 0  13.25 1 0  13.5 1 0  13.75 1 0  14 1 0  14.25 1 0  14.5 1 0  14.75 1 0  15 1 0  15.25 1 0  15.5 1 0  15.75 1 0  16 1 0  16.25 1 0  16.5 1 0  16.75 1 0  17 1 0  17.25 1 0  17.5 1 0  17.75 1 0  18 1 0  18.25 1 0  18.5 1 0  18.75 1 0  19 1 0  19.25 1 0  19.5 1 0  19.75 1 0  20 1 0  20.25 1 0  20.5 1 0  20.75 1 0  21 1 0  21.25 1 0  21.5 1 0  21.75 1 0  22 1 0  22.25 1 0  22.5 1 0  22.75 1 0  23 1 0  23.25 1 0  23.5 1 0  23.75 1 0  24 1 0  24.25 1 0  24.5 1 0  24.75 1 0  25 1 0  0 1.25 0  0.25 1.25 0  0.5 1.25 0  0.75 1.25 0  1 1.25 0  1.25 1.25 0  1.5 1.25 0  1.75 1.25 0  2 1.25 0  2.25 1.25 0  2.5 1.25 0  2.75 1.25 0  3 1.25 0  3.25 1.25 0  3.5 1.25 0  3.75 1.25 0  4 1.25 0  4.25 1.25 0  4.5 1.25 0  4.75 1.25 0  5 1.25 0  5.25 1.25 0  5.5 1.25 0  5.75 1.25 0  6 1.25 0  6.25 1.25 0  6.5 1.25 0  6.75 1.25 0  7 1.25 0  7.25 1.25 0  7.5 1.25 0  7.75 1.25 0  8 1.25 0  8.25 1.25 0  8.5 1.25 0  8.75 1.25 0  9 1.25 0  9.25 1.25 0  9.5 1.25 0  9.75 1.25 0  10 1.25 0  10.25 1.25 0  10.5 1.25 0  10.75 1.25 0  11 1.25 0  11.25 1.25 0  11.5 1.25 0  11.75 1.25 0  12 1.25 0  12.25 1.25 0  12.5 1.25 0  12.75 1.25 0  13 1.25 0  13.25 1.25 0  13.5 1.25 0  13.75 1.25 0  14 1.25 0  14.25 1.25 0  14.5 1.25 0  14.75 1.25 0  15 1.25 0  15.25 1.25 0  15.5 1.25 0  15.75 1.25 0  16 1.25 0  16.25 1.25 0  16.5 1.25 0  16.75 1.25 0  17 1.25 0  17.25 1.25 0  17.5 1.25 0  17.75 1.25 0  18 1.25 0  18.25 1.25 0  18.5 1.25 0  18.75 1.25 0  19 1.25 0  19.25 1.25 0  19.5 1.25 0  19.75 1.25 0  20 1.25 0  20.25 1.25 0  20.5 1.25 0  20.75 1.25 0  21 1.25 0  21.25 1.25 0  21.5 1.25 0  21.75 1.25 0  22 1.25 0  22.25 1.25 0  22.5 1.25 0  22.75 1.25 0  23 1.25 0  23.25 1.25 0  23.5 1.25 0  23.75 1.25 0  24 1.25 0  24.25 1.25 0  24.5 1.25 0  24.75 1.25 0  25 1.25 0  0 1.5 0  0.25 1.5 0  0.5 1.5 0  0.75 1.5 0  1 1.5 0  1.25 1.5 0  1.5 1.5 0  1.75 1.5 0  2 1.5 0  2.25 1.5 0  2.5 1.5 0  2.75 1.5 0  3 1.5 0  3.25 1.5 0  3.5 1.5 0  3.75 1.5 0  4 1.5 0  4.25 1.5 0  4.5 1.5 0  4.75 1.5 0  5 1.5 0  5.25 1.5 0  5.5 1.5 0  5.75 1.5 0  6 1.5 0  6.25 1.5 0  6.5 1.5 0  6.75 1.5 0  7 1.5 0  7.25 1.5 0  7.5 1.5 0  7.75 1.5 0  8 1.5 0  8.25 1.5 0  8.5 1.5 0  8.75 1.5 0  9 1.5 0  9.25 1.5 0  9.5 1.5 0  9.75 1.5 0  10 1.5 0  10.25 1.5 0  10.5 1.5 0  10.75 1.5 0  11 1.5 0  11.25 1.5 0  11.5 1.5 0  11.75 1.5 0  12 1.5 0  12.25 1.5 0  12.5 1.5 0  12.75 1.5 0  13 1.5 0  13.25 1.5 0  13.5 1.5 0  13.75 1.5 0  14 1.5 0  14.25 1.5 0  14.5 1.5 0  14.75 1.5 0  15 1.5 0  15.25 1.5 0  15.5 1.5 0  15.75 1.5 0  16 1.5 0  16.25 1.5 0  16.5 1.5 0  16.75 1.5 0  17 1.5 0  17.25 1.5 0  17.5 1.5 0  17.75 1.5 0  18 1.5 0  18.25 1.5 0  18.5 1.5 0  18.75 1.5 0  19 1.5 0  19.25 1.5 0  19.5 1.5 0  19.75 1.5 0  20 1.5 0  20.25 1.5 0  20.5 1.5 0  20.75 1.5 0  21 1.5 0  21.25 1.5 0  21.5 1.5 0  21.75 1.5 0  22 1.5 0  22.25 1.5 0  22.5 1.5 0  22.75 1.5 0  23 1.5 0  23.25 1.5 0  23.5 1.5 0  23.75 1.5 0  24 1.5 0  24.25 1.5 0  24.5 1.5 0  24.75 1.5 0  25 1.5 0  0 1.75 0  0.25 1.75 0  0.5 1.75 0  0.75 1.75 0  1 1.75 0  1.25 1.75 0  1.5 1.75 0  1.75 1.75 0  2 1.75 0  2.25 1.75 0  2.5 1.75 0  2.75 1.75 0  3 1.75 0  3.25 1.75 0  3.5 1.75 0  3.75 1.75 0  4 1.75 0  4.25 1.75 0  4.5 1.75 0  4.75 1.75 0  5 1.75 0  5.25 1.75 0  5.5 1.75 0  5.75 1.75 0  6 1.75 0  6.25 1.75 0  6.5 1.75 0  6.75 1.75 0  7 1.75 0  7.25 1.75 0  7.5 1.75 0  7.75 1.75 0  8 1.75 0  8.25 1.75 0  8.5 1.75 0  8.75 1.75 0  9 1.75 0  9.25 1.75 0  9.5 1.75 0  9.75 1.75 0  10 1.75 0  10.25 1.75 0  10.5 1.75 0  10.75 1.75 0  11 1.75 0  11.25 1.75 0  11.5 1.75 0  11.75 1.75 0  12 1.75 0  12.25 1.75 0  12.5 1.75 0  12.75 1.75 0  13 1.75 0  13.25 1.75 0  13.5 1.75 0  13.75 1.75 0  14 1.75 0  14.25 1.75 0  14.5 1.75 0  14.75 1.75 0  15 1.75 0  15.25 1.75 0  15.5 1.75 0  15.75 1.75 0  16 1.75 0  16.25 1.75 0  16.5 1.75 0  16.75 1.75 0  17 1.75 0  17.25 1.75 0  17.5 1.75 0  17.75 1.75 0  18 1.75 0  18.25 1.75 0  18.5 1.75 0  18.75 1.75 0  19 1.75 0  19.25 1.75 0  19.5 1.75 0  19.75 1.75 0  20 1.75 0  20.25 1.75 0  20.5 1.75 0  20.75 1.75 0  21 1.75 0  21.25 1.75 0  21.5 1.75 0  21.75 1.75 0  22 1.75 0  22.25 1.75 0  22.5 1.75 0  22.75 1.75 0  23 1.75 0  23.25 1.75 0  23.5 1.75 0  23.75 1.75 0  24 1.75 0  24.25 1.75 0  24.5 1.75 0  24.75 1.75 0  25 1.75 0  0 2 0  0.25 2 0  0.5 2 0  0.75 2 0  1 2 0  1.25 2 0  1.5 2 0  1.75 2 0  2 2 0  2.25 2 0  2.5 2 0  2.75 2 0  3 2 0  3.25 2 0  3.5 2 0  3.75 2 0  4 2 0  4.25 2 0  4.5 2 0  4.75 2 0  5 2 0  5.25 2 0  5.5 2 0  5.75 2 0  6 2 0  6.25 2 0  6.5 2 0  6.75 2 0  7 2 0  7.25 2 0  7.5 2 0  7.75 2 0  8 2 0  8.25 2 0  8.5 2 0  8.75 2 0  9 2 0  9.25 2 0  9.5 2 0  9.75 2 0  10 2 0  10.25 2 0  10.5 2 0  10.75 2 0  11 2 0  11.25 2 0 
[...]
<PointData  Scalars="f_26"> 
<DataArray  type="Float64"  Name="f_26"  format="ascii">2.3716644943819570e-05  2.3715198005512681e-05  2.3711998259879192e-05  2.3706861200909390e-05  2.3699709422665277e-05  2.3690493742662652e-05  2.3679180197267536e-05  2.3665753480470885e-05  2.3650225053361759e-05  2.3632642410308007e-05  2.3613097939790517e-05  2.3591736349956461e-05  2.3568759842308287e-05  2.3544430381317089e-05  2.3519068594375361e-05  2.3493049061018438e-05  2.3466792007230512e-05  2.3440751692778083e-05  2.3415402042360827e-05  2.3391220296620403e-05  2.3368669618385613e-05  2.3348181658853769e-05  2.3330140053232834e-05  2.3314865678089458e-05  2.3302604289724405e-05  2.3293516925969364e-05  2.3287673257372838e-05  2.3285047968546410e-05  2.3285520244478446e-05  2.3288876484444761e-05  2.3294816389288038e-05  2.3302962497345810e-05  2.3312873058228895e-05  2.3324057865550824e-05  2.3335996386382919e-05  2.3348157292707699e-05  2.3360018359991191e-05  2.3371085662435242e-05  2.3380911055002842e-05  2.3389107070876368e-05  2.3395358559160626e-05  2.3399430621054962e-05  2.3401172653502726e-05  2.3400518558288699e-05  2.3397483404041066e-05  2.3392157023526372e-05  2.3384695177253848e-05  2.3375309008660330e-05  2.3364253551827241e-05  2.3351816029732912e-05  2.3338304603973740e-05  2.3324038115042202e-05  2.3309337199524620e-05  2.3294517004174793e-05  2.3279881554925889e-05  2.3265719697660102e-05  2.3252302417972589e-05  2.3239881273036899e-05  2.3228687626473582e-05  2.3218932358456242e-05  2.3210805719695095e-05  2.3204477006506858e-05  2.3200093761458651e-05  2.3197780265341665e-05  2.3197635198482925e-05  2.3199728519406621e-05  2.3204097821374234e-05  2.3210744640790303e-05  2.3219631346502255e-05  2.3230679279191628e-05  2.3243768706129117e-05  2.3258740922110493e-05  2.3275402516512603e-05  2.3293531514269533e-05  2.3312884854602977e-05  2.3333206538171597e-05  2.3354235759472149e-05  2.3375714427462697e-05  2.3397393629292206e-05  2.3419038773266326e-05  2.3440433326869612e-05  2.3461381221220520e-05  2.3481708110173316e-05  2.3501261742638503e-05  2.3519911728775220e-05  2.3537548958244485e-05  2.3554084870454968e-05  2.3569450695460608e-05  2.3583596695039456e-05  2.3596491351929541e-05  2.3608120394716594e-05  2.3618485516077612e-05  2.3627602647345793e-05  2.3635499691108319e-05  2.3642213678162158e-05  2.3647787391635582e-05  2.3652265565491598e-05  2.3655690763889468e-05  2.3658098808892959e-05  2.3659512422320479e-05  2.3659926194928347e-05  2.3714472038856699e-05  2.3713357713310309e-05  2.3710246405185039e-05  2.3705144319881659e-05  2.3698017481996766e-05  2.3688828159474921e-05  2.3677546322145204e-05  2.3664158603664855e-05  2.3648677746223467e-05  2.3631152198136314e-05  2.3611675040701720e-05  2.3590391404211582e-05  2.3567503613220591e-05  2.3543273429663082e-05  2.3518020937675758e-05  2.3492119833739989e-05  2.3465989139765073e-05  2.3440081626692872e-05  2.3414869497426936e-05  2.3390828102036685e-05  2.3368418616767675e-05  2.3348070687064642e-05  2.3330165999094904e-05  2.3315023606858926e-05  2.3302887629755791e-05  2.3293917700166125e-05  2.3288182346312882e-05  2.3285655392333609e-05  2.3286215452464524e-05  2.3289648643841113e-05  2.3295654664577235e-05  2.3303856312266138e-05  2.3313812331544362e-05  2.3325033211675046e-05  2.3336999272841548e-05  2.3349180148598231e-05  2.3361054632783200e-05  2.3372129824118167e-05  2.3381958562134180e-05  2.3390154286018001e-05  2.3396402643220036e-05  2.3400469407077491e-05  2.3402204512541116e-05  2.3401542267232143e-05  2.3398498023869376e-05  2.3393161794529896e-05  2.3385689435511123e-05  2.3376292125705185e-05  2.3365224897197657e-05  2.3352774954199420e-05  2.3339250439868802e-05  2.3324970189336843e-05  2.3310254855092879e-05  2.3295419624914911e-05  2.3280768590870839e-05  2.3266590686712874e-05  2.3253157001319673e-05  2.3240719201624966e-05  2.3229508756313408e-05  2.3219736633172530e-05  2.3211593139900882e-05  2.3205247587347965e-05  2.3200847481901711e-05  2.3198517015024973e-05  2.3198354729544154e-05  2.3200430410965374e-05  2.3204781462881872e-05  2.3211409237398911e-05  2.3220275945671703e-05  2.3231302814047022e-05  2.3244370048657688e-05  2.3259318938739570e-05  2.3275956119861059e-05  2.3294059707268380e-05  2.3313386765851895e-05  2.3333681449568623e-05  2.3354683128386287e-05  2.3376133905934617e-05  2.3397785082126587e-05  2.3419402295729865e-05  2.3440769261371307e-05  2.3461690171138127e-05  2.3481990948152580e-05  2.3501519610392332e-05  2.3520146025709304e-05  2.3537761317093347e-05  2.3554277119405096e-05  2.3569624807784867e-05  2.3583754728862792e-05  2.3596635384184430e-05  2.3608252454455878e-05  2.3618607522989574e-05  2.3627716361593125e-05  2.3635606680804091e-05  2.3642315312001029e-05  2.3647884870191655e-05  2.3652360029879688e-05  2.3655783625676511e-05  2.3658192907397880e-05  2.3659616767516479e-05  2.3660077561494154e-05  2.3709129946800532e-05  2.3708106133438156e-05  2.3705070192952478e-05  2.3700029729883828e-05  2.3692965116766778e-05  2.3683848075284613e-05  2.3672654549297250e-05  2.3659375484671860e-05  2.3644027107507919e-05  2.3626660786468095e-05  2.3607371969413739e-05  2.3586307506075569e-05  2.3563670668380719e-05  2.3539723274533262e-05  2.3514784483477204e-05  2.3489226038386459e-05  2.3463463986218359e-05  2.3437947165147017e-05  2.3413143007799702e-05  2.3389521427391915e-05  2.3367537707746447e-05  2.3347615382641006e-05  2.3330130050944615e-05  2.3315394935235498e-05  2.3303648781080790e-05  2.3295046464245354e-05  2.3289652486996071e-05  2.3287437449750942e-05  2.3288277584620760e-05  2.3291957485168785e-05  2.3298176184427419e-05  2.3306556655543766e-05  2.3316658618549911e-05  2.3327994268524075e-05  2.3340046261246329e-05  2.3352287066193336e-05  2.3364198662386575e-05  2.3375291520796976e-05  2.3385121878706458e-05  2.3393306448901263e-05  2.3399533900061051e-05  2.3403572674587594e-05  2.3405274957058546e-05  2.3404576851701878e-05  2.3401495053395631e-05  2.3396120488842659e-05  2.3388609551168353e-05  2.3379173644284140e-05  2.3368067788787015e-05  2.3355579018811175e-05  2.3342015223450655e-05  2.3327694966219516e-05  2.3312938665097150e-05  2.3298061350934345e-05  2.3283367061375531e-05  2.3269144787086343e-05  2.3255665778109259e-05  2.3243181944670814e-05  2.3231925045518570e-05  2.3222106339708444e-05  2.3213916376203119e-05  2.3207524606393811e-05  2.3203078533554484e-05  2.3200702174681357e-05  2.3200493720446404e-05  2.3202522444719525e-05  2.3206825121736027e-05  2.3213402416403910e-05  2.3222215863919251e-05  2.3233186093770645e-05  2.3246192851546033e-05  2.3261077142416525e-05  2.3277645515136614e-05  2.3295676198189147e-05  2.3314926558540577e-05  2.3335141220732288e-05  2.3356060168813523e-05  2.3377426237477324e-05  2.3398991548364630e-05  2.3420522626977458e-05  2.3441804114346819e-05  2.3462641142956620e-05  2.3482860563709875e-05  2.3502311281975717e-05  2.3520863983963754e-05  2.3538410513361494e-05  2.3554863100917405e-05  2.3570153569092131e-05  2.3584232545090016e-05  2.3597068633908247e-05  2.3608647442018921e-05  2.3618970311670408e-05  2.3628052630213520e-05  2.3635921617409179e-05  2.3642613560354631e-05  2.3648170551059340e-05  2.3652636876597761e-05  2.3656055315001286e-05  2.3658463725207749e-05  2.3659892552539116e-05  2.3660364152319681e-05  2.3700516902048942e-05  2.3699530092367826e-05  2.3696555586755070e-05  2.3691590356549664e-05  2.3684617523398470e-05  2.3675614572380463e-05  2.3664563371401758e-05  2.3651460432146299e-05  2.3636327105800893e-05  2.3619219339687636e-05  2.3600236430232411e-05  2.3579528114196491e-05  2.3557299348236627e-05  2.3533812216144791e-05  2.3509384557645989e-05  2.3484385118826763e-05  2.3459225266302573e-05  2.3434347564749760e-05  2.3410211765504120e-05  2.3387278964699090e-05  2.3365994834992516e-05  2.3346772891757102e-05  2.3329978709721170e-05  2.3315915864832348e-05  2.3304814168596496e-05  2.3296820541593525e-05  2.3291992700857993e-05  2.3290295755146978e-05  2.3291601811190577e-05  2.3295692741643356e-05  2.3302266275179103e-05  2.3310945480782837e-05  2.3321291519917272e-05  2.3332819271150107e-05  2.3345015158036536e-05  2.3357356293345247e-05  2.3369329926656551e-05  2.3380452156267373e-05  2.3390284930483201e-05  2.3398450500378818e-05  2.3404642676969966e-05  2.3408634471611266e-05  2.3410281940651995e-05  2.3409524295695918e-05  2.3406380562312572e-05  2.3400943258242384e-05  2.3393369705706185e-05  2.3383871683560426e-05  2.3372704159594555e-05  2.3360153821049871e-05  2.3346528046615212e-05  2.3332144844570250e-05  2.3317324132718787e-05  2.3302380572935194e-05  2.3287618014348280e-05  2.3273325460430950e-05  2.3259774367755593e-05  2.3247217012161479e-05  2.3235885618576582e-05  2.3225991935733827e-05  2.3217726937978733e-05  2.3211260349631937e-05  2.3206739718096910e-05  2.3204288823633965e-05  2.3204005321999924e-05  2.3205957677342226e-05  2.3210181642814457e-05  2.3216676746606622e-05  2.3225403385780530e-05  2.3236281166172009e-05  2.3249189025726624e-05  2.3263967453316142e-05  2.3280422816240970e-05  2.3298333508629909e-05  2.3317457396392568e-05  2.3337539903857221e-05  2.3358322071988554e-05  2.3379548000448267e-05  2.3400971233323935e-05  2.3422359825944811e-05  2.3443500007557482e-05  2.3464198509254398e-05  2.3484283743630209e-05  2.3503606094088257e-05  2.3522037595394248e-05  2.3539471266391694e-05  2.3555820299225079e-05  2.3571017229485296e-05  2.3585013123338569e-05  2.3597776736207099e-05  2.3609293536388000e-05  2.3619564455863749e-05  2.3628604234212467e-05  2.3636439259241690e-05  2.3643104873993567e-05  2.3648642204704212e-05  2.3653094657291664e-05  2.3656504320879927e-05  2.3658908594157898e-05  2.3660337375272098e-05  2.3660810952510931e-05  2.3688685238962145e-05  2.3687724137808519e-05  2.3684809062107673e-05  2.3679932052934763e-05  2.3673077487970466e-05  2.3664227429407930e-05  2.3653369733045834e-05  2.3640507364617479e-05  2.3625668071374793e-05  2.3608913737421323e-05  2.3590348754236884e-05  2.3570126732232384e-05  2.3548454920267678e-05  2.3525595799810020e-05  2.3501865476297757e-05  2.3477628693269989e-05  2.3453290530551440e-05  2.3429285096588660e-05  2.3406061762674340e-05  2.3384069686136143e-05  2.3363741503488913e-05  2.3345477120541146e-05  2.3329628473279088e-05  2.3316485989017155e-05  2.3306267274529474e-05  2.3299108350886181e-05  2.3295057602309061e-05  2.3294072544740473e-05  2.3296019539762500e-05  2.3300676625661140e-05  2.3307739635505206e-05  2.3316831669167729e-05  2.3327515778319962e-05  2.3339310454035538e-05  2.3351707240801968e-05  2.3364189594943066e-05  2.3376251990654140e-05  2.3387418258451851e-05  2.3397258208269758e-05  2.3405401725811528e-05  2.3411549718119203e-05  2.3415481504788046e-05  2.3417058487059711e-05  2.3416224160642743e-05  2.3413000753264659e-05  2.3407482950672490e-05  2.3399829314116228e-05  2.3390252080662308e-05  2.3379006070894246e-05  2.3366377406364803e-05  2.3352672665513862e-05  2.3338208990200782e-05  2.3323305508488618e-05  2.3308276279176069e-05  2.3293424807351753e-05  2.3279040043841759e-05  2.3265393676088336e-05  2.3252738448185267e-05  2.3241307210791243e-05  2.3231312389629235e-05  2.3222945565646865e-05  2.3216376876542892e-05  2.3211753982528734e-05  2.3209200401316345e-05  2.3208813122968583e-05  2.3210659570419779e-05  2.3214774162813955e-05  2.3221154929334227e-05  2.3229760757684747e-05  2.3240509892851548e-05  2.3253280201518857e-05  2.3267911497516201e-05  2.3284209932954615e-05  2.3301954167093829e-05  2.3320902794845785e-05  2.3340802389637603e-05  2.3361395500487553e-05  2.3382428023856000e-05  2.3403655515887013e-05  2.3424848185831901e-05  2.3445794486983347e-05  2.3466303374982357e-05  2.3486205420001093e-05  2.3505353030806007e-05  2.3523620072791661e-05  2.3540901142045036e-05  2.3557110701707405e-05  2.3572182207732945e-05  2.3586067263386342e-05  2.3598734760603828e-05  2.3610169904991788e-05  2.3620372989425093e-05  2.3629357783675107e-05  2.3637149443556384e-05  2.3643781906933122e-05  2.3649294825686495e-05  2.3653730169775973e-05  2.3657128717085453e-05  2.3659526691617544e-05  2.3660952800302531e-05  2.3661425790531854e-05  2.3673758124406763e-05  2.3672821782966345e-05  2.3669970850046596e-05  2.3665196596552105e-05  2.3658485716353215e-05  2.3649825141391548e-05  2.3639209201409175e-05  2.3626648137932187e-05  2.3612177132278118e-05  2.3595865097291749e-05  2.3577822517192588e-05  2.3558207652812341e-05  2.3537230494701899e-05  2.3515153958153139e-05  2.3492291973701165e-05  2.3469004327583046e-05  2.3445688335875952e-05  2.3422767674902935e-05  2.3400678915629210e-05  2.3379856494964302e-05  2.3360716976081207e-05  2.3343643482111183e-05  2.3328971124190118e-05  2.3316974097325403e-05  2.3307854921891427e-05  2.3301736119513516e-05  2.3298654484190726e-05  2.3298558070310971e-05  2.3301306050468479e-05  2.3306671638292108e-05  2.3314348254262627e-05  2.3323958992144681e-05  2.3335069225536093e-05  2.3347201925874806e-05  2.3359855008227360e-05  2.3372519830359760e-05  2.3384699869456614e-05  2.3395928591570684e-05  2.3405785600058514e-05  2.3413910284701702e-05  2.3420012376151237e-05  2.3423879024119104e-05  2.3425378245601154e-05  2.3424458814731713e-05  2.3421146873138836e-05  2.3415539715545071e-05  2.3407797339342607e-05  2.3398132431605658e-05  2.3386799498442218e-05  2.3374083819315560e-05  2.3360290836673029e-05  2.3345736477091735e-05  2.3330738756744548e-05  2.3315610867213763e-05  2.3300655784756194e-05  2.3286162312776464e-05  2.3272402364776361e-05  2.3259629228083505e-05  2.3248076514819178e-05  2.3237957498250146e-05  2.3229464541197204e-05  2.3222768343879306e-05  2.3218016774678181e-05  2.3215333109894327e-05  2.3214813611004291e-05  2.3216524515777243e-05  2.3220498700291930e-05  2.3226732447550969e-05  2.3235182884760050e-05  2.3245766677259000e-05  2.3258360467411342e-05  2.3272803333029787e-05  2.3288901258959571e-05  2.3306433333008751e-05  2.3325159155206790e-05  2.3344826826472427e-05  2.3365180868615435e-05  2.3385969506538728e-05  2.3406950885703984e-05  2.3427897970272523e-05  2.3448602040689298e-05  2.3468874861645584e-05  2.3488549707362210e-05  2.3507481502573084e-05  2.3525546362036660e-05  2.3542640792037941e-05  2.3558680762392212e-05  2.3573600779152629e-05  2.3587353001154281e-05  2.3599906362628869e-05  2.3611245602554615e-05  2.3621370068724691e-05  2.3630292165424025e-05  2.3638035347418782e-05  2.3644631623870197e-05  2.3650118613726204e-05  2.3654536276050081e-05  2.3657923509637860e-05  2.3660314859889792e-05  2.3661737571126607e-05  2.3662209173870087e-05  2.3655909691664024e-05  2.3654999935709061e-05  2.3652220737238075e-05  2.3647564743036050e-05  2.3641022181329686e-05  2.3632585584724066e-05  2.3622256420937389e-05  2.3610052961230747e-05  2.3596018655077814e-05  2.3580230279810707e-05  2.3562805152723874e-05  2.3543906734932443e-05  2.3523748033369115e-05  2.3502592326901767e-05  2.3480750904854429e-05  2.3458577704729423e-05  2.3436460958068896e-05  2.3414812181106145e-05  2.3394053057614217e-05  2.3374600929929160e-05  2.3356853715792654e-05  2.3341175084654581e-05  2.3327880652179251e-05  2.3317225801787137e-05  2.3309395556557727e-05  2.3304496758126058e-05  2.3302552709738222e-05  2.3303500425492176e-05  2.3307190669005184e-05  2.3313390999809361e-05  2.3321792009835488e-05  2.3332016792923466e-05  2.3343633462646243e-05  2.3356170269250777e-05  2.3369132625368285e-05  2.3382021176936240e-05  2.3394349970069495e-05  2.3405663765291517e-05  2.3415553625542446e-05  2.3423670038412800e-05  2.3429733010700107e-05  2.3433538779317219e-05  2.3434963001165840e-05  2.3433960500221379e-05  2.3430561848142380e-05  2.3424867222606526e-05  2.3417038115308079e-05  2.3407287542059771e-05  2.3395869436748151e-05  2.3383067888453881e-05  2.3369186810278902e-05  2.3354540517111670e-05  2.3339445549801465e-05  2.3324213930442123e-05  2.3309147884515418e-05  2.3294535936012736e-05  2.3280650182620753e-05  2.3267744494506130e-05  2.3256053350097664e-05  2.3245791018205841e-05  2.3237150809085629e-05  2.3230304142372609e-05  2.3225399219250132e-05  2.3222559149288325e-05  2.3221879481141458e-05  2.3223425225731719e-05  2.3227227628999105e-05  2.3233281116315274e-05  2.3241540945378833e-05  2.3251922123884102e-05  2.3264300049103733e-05  2.3278513119839539e-05  2.3294367301296170e-05  2.3311642352600274e-05  2.3330099213591239e-05  2.3349487929643368e-05  2.3369555480137896e-05  2.3390052953341410e-05  2.3410741649562647e-05  2.3431397863701098e-05  2.3451816269218274e-05  2.3471811976161143e-05  2.3491221451094756e-05  2.3509902558085857e-05  2.3527734004650290e-05  2.3544614457883233e-05  2.3560461541922212e-05  2.3575210850498669e-05  2.3588815021995824e-05  2.3601242843849660e-05  2.3612478291261760e-05  2.3622519371460100e-05  2.3631376643800205e-05  2.3639071317209556e-05  2.3645632884149227e-05  2.3651096324535612e-05  2.3655498991259777e-05  2.3658877357223703e-05  2.3661263849174499e-05  2.3662684007166891e-05  2.3663154192262779e-05  2.3635359723465174e-05  2.3634479091024076e-05  2.3631780126835047e-05  2.3627257920317132e-05  2.3620907118994792e-05  2.3612726539380081e-05  2.3602725390924067e-05  2.3590930575521903e-05  2.3577394415398329e-05  2.3562202121496714e-05  2.3545478317783468e-05  2.3527391978717026e-05  2.3508159219424309e-05  2.3488043502258503e-05  2.3467352986859835e-05  2.3446434946048770e-05  2.3425667384046729e-05  2.3405448208876017e-05  2.3386182505431004e-05  2.3368268605383928e-05  2.3352083731748158e-05  2.3337969993721230e-05  2.3326221420575007e-05  2.3317072572779197e-05  2.3310689096856009e-05  2.3307160450286038e-05  2.3306494954381110e-05  2.3308617341617772e-05  2.3313369012001438e-05  2.3320511236781957e-05  2.3329731490356663e-05  2.3340652932403179e-05  2.3352846827140131e-05  2.3365847428983181e-05  2.3379168639597266e-05  2.3392321587869977e-05  2.3404832215151675e-05  2.3416257959029714e-05  2.3426202707494147e-05  2.3434329327372054e-05  2.3440369242413947e-05  2.3444128733460958e-05  2.3445491841298307e-05  2.3444419957603755e-05  2.3440948377193410e-05  2.3435180243739844e-05  2.3427278441882044e-05  2.3417456064409829e-05  2.3405966110086754e-05  2.3393091045007506e-05  2.3379132791287983e-05  2.3364403598729177e-05  2.3349218119468016e-05  2.3333886857446565e-05  2.3318711020176438e-05  2.3303978674964258e-05  2.3289962016735540e-05  2.3276915494936040e-05  2.3265074520981469e-05  2.3254654478319194e-05  2.3245849775554210e-05  2.3238832713387336e-05  2.3233751979101522e-05  2.3230730645903585e-05  2.3229863649091818e-05  2.3231214841223623e-05  2.3234813883482410e-05  2.3240653380494102e-05  2.3248686767770848e-05  2.3258827473332381e-05  2.3270949776413579e-05  2.3284891587094243e-05  2.3300459112784293e-05  2.3317433119288898e-05  2.3335576291053014e-05  2.3354641082915537e-05  2.3374377443835925e-05  2.3394539868414133e-05  2.3414893367948659e-05  2.3435218118750975e-05  2.3455312713755784e-05  2.3474996092366788e-05  2.3494108337832336e-05  2.3512510602519326e-05  2.3530084446523047e-05  2.3546730857031749e-05  2.3562369162697186e-05  2.3576935980803733e-05  2.3590384249420693e-05  2.3602682316414380e-05  2.3613812994922810e-05  2.3623772459935102e-05  2.3632568857590038e-05  2.3640220527174606e-05  2.3646753790101437e-05  2.3652200330902488e-05  2.3656594270458003e-05  2.3659969098520922e-05  2.3662354679790930e-05  2.3663774568137670e-05  2.3664243856910365e-05  2.3612371489547654e-05  2.3611522537987426e-05  2.3608912189836011e-05  2.3604538504323540e-05  2.3598401085579320e-05  2.3590505501236115e-05  2.3580869112127282e-05  2.3569527825823180e-05  2.3556543179443657e-05  2.3542009106178244e-05  2.3526057737410798e-05  2.3508863634444899e-05  2.3490645929238177e-05  2.3471667980324617e-05  2.3452234313415582e-05  2.3432684807164970e-05  2.3413386289902258e-05  2.3394721914986120e-05  2.3377078859319509e-05  2.3360835018269309e-05  2.3346345429831708e-05  2.3333929139307426e