<?xml version="1.0"?>
<VTKFile type="UnstructuredGrid"  version="0.1"  >
<UnstructuredGrid>
<Piece  NumberOfPoints="10201" NumberOfCells="20000">
<Points>
<DataArray  type="Float64"  NumberOfComponents="3"  format="ascii">0 0 0  0.25 0 0  0.5 0 0  0.75 0 0  1 0 0  1.25 0 0  1.5 0 0  1.75 0 0  2 0 0  2.25 0 0  2.5 0 0  2.75 0 0  3 0 0  3.25 0 0  3.5 0 0  3.75 0 0  4 0 0  4.25 0 0  4.5 0 0  4.75 0 0  5 0 0  5.25 0 0  5.5 0 0  5.75 0 0  6 0 0  6.25 0 0  6.5 0 0  6.75 0 0  7 0 0  7.25 0 0  7.5 0 0  7.75 0 0  8 0 0  8.25 0 0  8.5 0 0  8.75 0 0  9 0 0  9.25 0 0  9.5 0 0  9.75 0 0  10 0 0  10.25 0 0  10.5 0 0  10.75 0 0  11 0 0  11.25 0 0  11.5 0 0  11.75 0 0  12 0 0  12.25 0 0  12.5 0 0  12.75 0 0  13 0 0  13.25 0 0  13.5 0 0  13.75 0 0  14 0 0  14.25 0 0  14.5 0 0  14.75 0 0  15 0 0  15.25 0 0  15.5 0 0  15.75 0 0  16 0 0  16.25 0 0  16.5 0 0  16.75 0 0  17 0 0  17.25 0 0  17.5 0 0  17.75 0 0  18 0 0  18.25 0 0  18.5 0 0  18.75 0 0  19 0 0  19.25 0 0  19.5 0 0  19.75 0 0  20 0 0  20.25 0 0  20.5 0 0  20.75 0 0  21 0 0  21.25 0 0  21.5 0 0  21.75 0 0  22 0 0  22.25 0 0  22.5 0 0  22.75 0 0  23 0 0  23.25 0 0  23.5 0 0  23.75 0 0  24 0 0  24.25 0 0  24.5 0 0  24.75 0 0  25 0 0  0 0.25 0  0.25 0.25 0  0.5 0.25 0  0.75 0.25 0  1 0.25 0  1.25 0.25 0  1.5 0.25 0  1.75 0.25 0  2 0.25 0  2.25 0.25 0  2.5 0.25 0  2.75 0.25 0  3 0.25 0  3.25 0.25 0  3.5 0.25 0  3.75 0.25 0  4 0.25 0  4.25 0.25 0  4.5 0.25 0  4.75 0.25 0  5 0.25 0  5.25 0.25 0  5.5 0.25 0  5.75 0.25 0  6 0.25 0  6.25 0.25 0  6.5 0.25 0  6.75 0.25 0  7 0.25 0  7.25 0.25 0  7.5 0.25 0  7.75 0.25 0  8 0.25 0  8.25 0.25 0  8.5 0.25 0  8.75 0.25 0  9 0.25 0  9.25 0.25 0  9.5 0.25 0  9.75 0.25 0  10 0.25 0  10.25 0.25 0  10.5 0.25 0  10.75 0.25 0  11 0.25 0  11.25 0.25 0  11.5 0.25 0  11.75 0.25 0  12 0.25 0  12.25 0.25 0  12.5 0.25 0  12.75 0.25 0  13 0.25 0  13.25 0.25 0  13.5 0.25 0  13.75 0.25 0  14 0.25 0  14.25 0.25 0  14.5 0.25 0  14.75 0.25 0  15 0.25 0  15.25 0.25 0  15.5 0.25 0  15.75 0.25 0  16 0.25 0  16.25 0.25 0  16.5 0.25 0  16.75 0.25 0  17 0.25 0  17.25 0.25 0  17.5 0.25 0  17.75 0.25 0  18 0.25 0  18.25 0.25 0  18.5 0.25 0  18.75 0.25 0  19 0.25 0  19.25 0.25 0  19.5 0.25 0  19.75 0.25 0  20 0.25 0  20.25 0.25 0  20.5 0.25 0  20.75 0.25 0  21 0.25 0  21.25 0.25 0  21.5 0.25 0  21.75 0.25 0  22 0.25 0  22.25 0.25 0  22.5 0.25 0  22.75 0.25 0  23 0.25 0  23.25 0.25 0  23.5 0.25 0  23.75 0.25 0  24 0.25 0  24.25 0.25 0  24.5 0.25 0  24.75 0.25 0  25 0.25 0  0 0.5 0  0.25 0.5 0  0.5 0.5 0  0.75 0.5 0  1 0.5 0  1.25 0.5 0  1.5 0.5 0  1.75 0.5 0  2 0.5 0  2.25 0.5 0  2.5 0.5 0  2.75 0.5 0  3 0.5 0  3.25 0.5 0  3.5 0.5 0  3.75 0.5 0  4 0.5 0  4.25 0.5 0  4.5 0.5 0  4.75 0.5 0  5 0.5 0  5.25 0.5 0  5.5 0.5 0  5.75 0.5 0  6 0.5 0  6.25 0.5 0  6.5 0.5 0  6.75 0.5 0  7 0.5 0  7.25 0.5 0  7.5 0.5 0  7.75 0.5 0  8 0.5 0  8.25 0.5 0  8.5 0.5 0  8.75 0.5 0  9 0.5 0  9.25 0.5 0  9.5 0.5 0  9.75 0.5 0  10 0.5 0  10.25 0.5 0  10.5 0.5 0  10.75 0.5 0  11 0.5 0  11.25 0.5 0  11.5 0.5 0  11.75 0.5 0  12 0.5 0  12.25 0.5 0  12.5 0.5 0  12.75 0.5 0  13 0.5 0  13.25 0.5 0  13.5 0.5 0  13.75 0.5 0  14 0.5 0  14.25 0.5 0  14.5 0.5 0  14.75 0.5 0  15 0.5 0  15.25 0.5 0  15.5 0.5 0  15.75 0.5 0  16 0.5 0  16.25 0.5 0  16.5 0.5 0  16.75 0.5 0  17 0.5 0  17.25 0.5 0  17.5 0.5 0  17.75 0.5 0  18 0.5 0  18.25 0.5 0  18.5 0.5 0  18.75 0.5 0  19 0.5 0  19.25 0.5 0  19.5 0.5 0  19.75 0.5 0  20 0.5 0  20.25 0.5 0  20.5 0.5 0  20.75 0.5 0  21 0.5 0  21.25 0.5 0  21.5 0.5 0  21.75 0.5 0  22 0.5 0  22.25 0.5 0  22.5 0.5 0  22.75 0.5 0  23 0.5 0  23.25 0.5 0  23.5 0.5 0  23.75 0.5 0  24 0.5 0  24.25 0.5 0  24.5 0.5 0  24.75 0.5 0  25 0.5 0  0 0.75 0  0.25 0.75 0  0.5 0.75 0  0.75 0.75 0  1 0.75 0  1.25 0.75 0  1.5 0.75 0  1.75 0.75 0  2 0.75 0  2.25 0.75 0  2.5 0.75 0  2.75 0.75 0  3 0.75 0  3.25 0.75 0  3.5 0.75 0  3.75 0.75 0  4 0.75 0  4.25 0.75 0  4.5 0.75 0  4.75 0.75 0  5 0.75 0  5.25 0.75 0  5.5 0.75 0  5.75 0.75 0  6 0.75 0  6.25 0.75 0  6.5 0.75 0  6.75 0.75 0  7 0.75 0  7.25 0.75 0  7.5 0.75 0  7.75 0.75 0  8 0.75 0  8.25 0.75 0  8.5 0.75 0  8.75 0.75 0  9 0.75 0  9.25 0.75 0  9.5 0.75 0  9.75 0.75 0  10 0.75 0  10.25 0.75 0  10.5 0.75 0  10.75 0.75 0  11 0.75 0  11.25 0.75 0  11.5 0.75 0  11.75 0.75 0  12 0.75 0  12.25 0.75 0  12.5 0.75 0  12.75 0.75 0  13 0.75 0  13.25 0.75 0  13.5 0.75 0  13.75 0.75 0  14 0.75 0  14.25 0.75 0  14.5 0.75 0  14.75 0.75 0  15 0.75 0  15.25 0.75 0  15.5 0.75 0  15.75 0.75 0  16 0.75 0  16.25 0.75 0  16.5 0.75 0  16.75 0.75 0  17 0.75 0  17.25 0.75 0  17.5 0.75 0  17.75 0.75 0  18 0.75 0  18.25 0.75 0  18.5 0.75 0  18.75 0.75 0  19 0.75 0  19.25 0.75 0  19.5 0.75 0  19.75 0.75 0  20 0.75 0  20.25 0.75 0  20.5 0.75 0  20.75 0.75 0  21 0.75 0  21.25 0.75 0  21.5 0.75 0  21.75 0.75 0  22 0.75 0  22.25 0.75 0  22.5 0.75 0  22.75 0.75 0  23 0.75 0  23.25 0.75 0  23.5 0.75 0  23.75 0.75 0  24 0.75 0  24.25 0.75 0  24.5 0.75 0  24.75 0.75 0  25 0.75 0  0 1 0  0.25 1 0  0.5 1 0  0.75 1 0  1 1 0  1.25 1 0  1.5 1 0  1.75 1 0  2 1 0  2.25 1 0  2.5 1 0  2.75 1 0  3 1 0  3.25 1 0  3.5 1 0  3.75 1 0  4 1 0  4.25 1 0  4.5 1 0  4.75 1 0  5 1 0  5.25 1 0  5.5 1 0  5.75 1 0  6 1 0  6.25 1 0  6.5 1 0  6.75 1 0  7 1 0  7.25 1 0  7.5 1 0  7.75 1 0  8 1 0  8.25 1 0  8.5 1 0  8.75 1 0  9 1 0  9.25 1 0  9.5 1 0  9.75 1 0  10 1 0  10.25 1 0  10.5 1 0  10.75 1 0  11 1 0  11.25 1 0  11.5 1 0  11.75 1 0  12 1 0  12.25 1 0  12.5 1 0  12.75 1 0  13 1 0  13.25 1 0  13.5 1 0  13.75 1 0  14 1 0  14.25 1 0  14.5 1 0  14.75 1 0  15 1 0  15.25 1 0  15.5 1 0  15.75 1 0  16 1 0  16.25 1 0  16.5 1 0  16.75 1 0  17 1 0  17.25 1 0  17.5 1 0  17.75 1 0  18 1 0  18.25 1 0  18.5 1 0  18.75 1 0  19 1 0  19.25 1 0  19.5 1 0  19.75 1 0  20 1 0  20.25 1 0  20.5 1 0  20.75 1 0  21 1 0  21.25 1 0  21.5 1 0  21.75 1 0  22 1 0  22.25 1 0  22.5 1 0  22.75 1 0  23 1 0  23.25 1 0  23.5 1 0  23.75 1 0  24 1 0  24.25 1 0  24.5 1 0  24.75 1 0  25 1 0  0 1.25 0  0.25 1.25 0  0.5 1.25 0  0.75 1.25 0  1 1.25 0  1.25 1.25 0  1.5 1.25 0  1.75 1.25 0  2 1.25 0  2.25 1.25 0  2.5 1.25 0  2.75 1.25 0  3 1.25 0  3.25 1.25 0  3.5 1.25 0  3.75 1.25 0  4 1.25 0  4.25 1.25 0  4.5 1.25 0  4.75 1.25 0  5 1.25 0  5.25 1.25 0  5.5 1.25 0  5.75 1.25 0  6 1.25 0  6.25 1.25 0  6.5 1.25 0  6.75 1.25 0  7 1.25 0  7.25 1.25 0  7.5 1.25 0  7.75 1.25 0  8 1.25 0  8.25 1.25 0  8.5 1.25 0  8.75 1.25 0  9 1.25 0  9.25 1.25 0  9.5 1.25 0  9.75 1.25 0  10 1.25 0  10.25 1.25 0  10.5 1.25 0  10.75 1.25 0  11 1.25 0  11.25 1.25 0  11.5 1.25 0  11.75 1.25 0  12 1.25 0  12.25 1.25 0  12.5 1.25 0  12.75 1.25 0  13 1.25 0  13.25 1.25 0  13.5 1.25 0  13.75 1.25 0  14 1.25 0  14.25 1.25 0  14.5 1.25 0  14.75 1.25 0  15 1.25 0  15.25 1.25 0  15.5 1.25 0  15.75 1.25 0  16 1.25 0  16.25 1.25 0  16.5 1.25 0  16.75 1.25 0  17 1.25 0  17.25 1.25 0  17.5 1.25 0  17.75 1.25 0  18 1.25 0  18.25 1.25 0  18.5 1.25 0  18.75 1.25 0  19 1.25 0  19.25 1.25 0  19.5 1.25 0  19.75 1.25 0  20 1.25 0  20.25 1.25 0  20.5 1.25 0  20.75 1.25 0  21 1.25 0  21.25 1.25 0  21.5 1.25 0  21.75 1.25 0  22 1.25 0  22.25 1.25 0  22.5 1.25 0  22.75 1.25 0  23 1.25 0  23.25 1.25 0  23.5 1.25 0  23.75 1.25 0  24 1.25 0  24.25 1.25 0  24.5 1.25 0  24.75 1.25 0  25 1.25 0  0 1.5 0  0.25 1.5 0  0.5 1.5 0  0.75 1.5 0  1 1.5 0  1.25 1.5 0  1.5 1.5 0  1.75 1.5 0  2 1.5 0  2.25 1.5 0  2.5 1.5 0  2.75 1.5 0  3 1.5 0  3.25 1.5 0  3.5 1.5 0  3.75 1.5 0  4 1.5 0  4.25 1.5 0  4.5 1.5 0  4.75 1.5 0  5 1.5 0  5.25 1.5 0  5.5 1.5 0  5.75 1.5 0  6 1.5 0  6.25 1.5 0  6.5 1.5 0  6.75 1.5 0  7 1.5 0  7.25 1.5 0  7.5 1.5 0  7.75 1.5 0  8 1.5 0  8.25 1.5 0  8.5 1.5 0  8.75 1.5 0  9 1.5 0  9.25 1.5 0  9.5 1.5 0  9.75 1.5 0  10 1.5 0  10.25 1.5 0  10.5 1.5 0  10.75 1.5 0  11 1.5 0  11.25 1.5 0  11.5 1.5 0  11.75 1.5 0  12 1.5 0  12.25 1.5 0  12.5 1.5 0  12.75 1.5 0  13 1.5 0  13.25 1.5 0  13.5 1.5 0  13.75 1.5 0  14 1.5 0  14.25 1.5 0  14.5 1.5 0  14.75 1.5 0  15 1.5 0  15.25 1.5 0  15.5 1.5 0  15.75 1.5 0  16 1.5 0  16.25 1.5 0  16.5 1.5 0  16.75 1.5 0  17 1.5 0  17.25 1.5 0  17.5 1.5 0  17.75 1.5 0  18 1.5 0  18.25 1.5 0  18.5 1.5 0  18.75 1.5 0  19 1.5 0  19.25 1.5 0  19.5 1.5 0  19.75 1.5 0  20 1.5 0  20.25 1.5 0  20.5 1.5 0  20.75 1.5 0  21 1.5 0  21.25 1.5 0  21.5 1.5 0  21.75 1.5 0  22 1.5 0  22.25 1.5 0  22.5 1.5 0  22.75 1.5 0  23 1.5 0  23.25 1.5 0  23.5 1.5 0  23.75 1.5 0  24 1.5 0  24.25 1.5 0  24.5 1.5 0  24.75 1.5 0  25 1.5 0  0 1.75 0  0.25 1.75 0  0.5 1.75 0  0.75 1.75 0  1 1.75 0  1.25 1.75 0  1.5 1.75 0  1.75 1.75 0  2 1.75 0  2.25 1.75 0  2.5 1.75 0  2.75 1.75 0  3 1.75 0  3.25 1.75 0  3.5 1.75 0  3.75 1.75 0  4 1.75 0  4.25 1.75 0  4.5 1.75 0  4.75 1.75 0  5 1.75 0  5.25 1.75 0  5.5 1.75 0  5.75 1.75 0  6 1.75 0  6.25 1.75 0  6.5 1.75 0  6.75 1.75 0  7 1.75 0  7.25 1.75 0  7.5 1.75 0  7.75 1.75 0  8 1.75 0  8.25 1.75 0  8.5 1.75 0  8.75 1.75 0  9 1.75 0  9.25 1.75 0  9.5 1.75 0  9.75 1.75 0  10 1.75 0  10.25 1.75 0  10.5 1.75 0  10.75 1.75 0  11 1.75 0  11.25 1.75 0  11.5 1.75 0  11.75 1.75 0  12 1.75 0  12.25 1.75 0  12.5 1.75 0  12.75 1.75 0  13 1.75 0  13.25 1.75 0  13.5 1.75 0  13.75 1.75 0  14 1.75 0  14.25 1.75 0  14.5 1.75 0  14.75 1.75 0  15 1.75 0  15.25 1.75 0  15.5 1.75 0  15.75 1.75 0  16 1.75 0  16.25 1.75 0  16.5 1.75 0  16.75 1.75 0  17 1.75 0  17.25 1.75 0  17.5 1.75 0  17.75 1.75 0  18 1.75 0  18.25 1.75 0  18.5 1.75 0  18.75 1.75 0  19 1.75 0  19.25 1.75 0  19.5 1.75 0  19.75 1.75 0  20 1.75 0  20.25 1.75 0  20.5 1.75 0  20.75 1.75 0  21 1.75 0  21.25 1.75 0  21.5 1.75 0  21.75 1.75 0  22 1.75 0  22.25 1.75 0  22.5 1.75 0  22.75 1.75 0  23 1.75 0  23.25 1.75 0  23.5 1.75 0  23.75 1.75 0  24 1.75 0  24.25 1.75 0  24.5 1.75 0  24.75 1.75 0  25 1.75 0  0 2 0  0.25 2 0  0.5 2 0  0.75 2 0  1 2 0  1.25 2 0  1.5 2 0  1.75 2 0  2 2 0  2.25 2 0  2.5 2 0  2.75 2 0  3 2 0  3.25 2 0  3.5 2 0  3.75 2 0  4 2 0  4.25 2 0  4.5 2 0  4.75 2 0  5 2 0  5.25 2 0  5.5 2 0  5.75 2 0  6 2 0  6.25 2 0  6.5 2 0  6.75 2 0  7 2 0  7.25 2 0  7.5 2 0  7.75 2 0  8 2 0  8.25 2 0  8.5 2 0  8.75 2 0  9 2 0  9.25 2 0  9.5 2 0  9.75 2 0  10 2 0  10.25 2 0  10.5 2 0  10.75 2 0  11 2 0  11.25 2 0 
[...]
<PointData  Scalars="f_26"> 
<DataArray  type="Float64"  Name="f_26"  format="ascii">2.3413180892337951e-05  2.3413393325416559e-05  2.3413972997169876e-05  2.3414849562556507e-05  2.3415908123432493e-05  2.3416996944431184e-05  2.3417935574910556e-05  2.3418523714195121e-05  2.3418550794112388e-05  2.3417806408049616e-05  2.3416091834939109e-05  2.3413232798751330e-05  2.3409093239003218e-05  2.3403589330411843e-05  2.3396702439390350e-05  2.3388489319844538e-05  2.3379087771787025e-05  2.3368716278378228e-05  2.3357666775522830e-05  2.3346290589541362e-05  2.3334978543782822e-05  2.3324137098574764e-05  2.3314162970395470e-05  2.3305418839828910e-05  2.3298212454556558e-05  2.3292780731202266e-05  2.3289279540696821e-05  2.3287778975134264e-05  2.3288263272425011e-05  2.3290634348730844e-05  2.3294718038907677e-05  2.3300272521065776e-05  2.3306998792828721e-05  2.3314553296279508e-05  2.3322562775671423e-05  2.3330641225439129e-05  2.3338408445527911e-05  2.3345509377828706e-05  2.3351633127106867e-05  2.3356530397370360e-05  2.3360027992517778e-05  2.3362039030878262e-05  2.3362567625258541e-05  2.3361707030128280e-05  2.3359630708144963e-05  2.3356576440570727e-05  2.3352824456569878e-05  2.3348671463229640e-05  2.3344403239047973e-05  2.3340268911618962e-05  2.3336460025210750e-05  2.3333096967209796e-05  2.3330224341742064e-05  2.3327815640842402e-05  2.3325786308869657e-05  2.3324013248095982e-05  2.3322358121335400e-05  2.3320691520807664e-05  2.3318915154547022e-05  2.3316979566529733e-05  2.3314895460033242e-05  2.3312737362485082e-05  2.3310639112707380e-05  2.3308781449625967e-05  2.3307372818047432e-05  2.3306625340057738e-05  2.3306728644998491e-05  2.3307824779822197e-05  2.3309987590973518e-05  2.3313209661799717e-05  2.3317399063539616e-05  2.3322386898266667e-05  2.3327945054390016e-05  2.3333812015305570e-05  2.3339723240862203e-05  2.3345441824460218e-05  2.3350784973664176e-05  2.3355642411579298e-05  2.3359983973586460e-05  2.3363855301299213e-05  2.3367362362832769e-05  2.3370647270729360e-05  2.3373859247437600e-05  2.3377125373507982e-05  2.3380525804809133e-05  2.3384077438354345e-05  2.3387728644582867e-05  2.3391365883494018e-05  2.3394831078711112e-05  2.3397946863393888e-05  2.3400545534543063e-05  2.3402496976117865e-05  2.3403731031019647e-05  2.3404250766953475e-05  2.3404134604586823e-05  2.3403527074629933e-05  2.3402619726922490e-05  2.3401625153739642e-05  2.3400748052090642e-05  2.3400157814494386e-05  2.3399968087164283e-05  2.3413064913688239e-05  2.3413259942379766e-05  2.3413821916025201e-05  2.3414676645230013e-05  2.3415709106503820e-05  2.3416768456016709e-05  2.3417675544254508e-05  2.3418231653360091e-05  2.3418228066362160e-05  2.3417456494431465e-05  2.3415720565965919e-05  2.3412848493893052e-05  2.3408706689207285e-05  2.3403213569187654e-05  2.3396352274674327e-05  2.3388180636486916e-05  2.3378836654580945e-05  2.3368538038603810e-05  2.3357574981969409e-05  2.3346296203522193e-05  2.3335089237521814e-05  2.3324356803615092e-05  2.3314491667249497e-05  2.3305852572397590e-05  2.3298743539842397e-05  2.3293398136928145e-05  2.3289969414161036e-05  2.3288525315630135e-05  2.3289048737682964e-05  2.3291441169836917e-05  2.3295528992435254e-05  2.3301071881794583e-05  2.3307773176380815e-05  2.3315292305191837e-05  2.3323259384989019e-05  2.3331291878719965e-05  2.3339012869837118e-05  2.3346070158104200e-05  2.3352155100915427e-05  2.3357019939684422e-05  2.3360492259361240e-05  2.3362485224606505e-05  2.3363002336317232e-05  2.3362135701894025e-05  2.3360057262285015e-05  2.3357003088427192e-05  2.3353251705819146e-05  2.3349098308726587e-05  2.3344827505122061e-05  2.3340687694927849e-05  2.3336870177512307e-05  2.3333495558835204e-05  2.3330609058126526e-05  2.3328185081624669e-05  2.3326140175714687e-05  2.3324352418755530e-05  2.3322684612192848e-05  2.3321008340617143e-05  2.3319226052777234e-05  2.3317288684836995e-05  2.3315206906635345e-05  2.3313054744927072e-05  2.3310965080180175e-05  2.3309117305881405e-05  2.3307718265242180e-05  2.3306978400537766e-05  2.3307085783744216e-05  2.3308181219827160e-05  2.3310337783636970e-05  2.3313547850497866e-05  2.3317719864953316e-05  2.3322685824200099e-05  2.3328218905806541e-05  2.3334059097851010e-05  2.3339943374608711e-05  2.3345636147582844e-05  2.3350955568000126e-05  2.3355791804851699e-05  2.3360114594922903e-05  2.3363968979168929e-05  2.3367459953497027e-05  2.3370728488368819e-05  2.3373922735146068e-05  2.3377169011967836e-05  2.3380547210434954e-05  2.3384074564149426e-05  2.3387700373270872e-05  2.3391312499261077e-05  2.3394754522571989e-05  2.3397850714649431e-05  2.3400434709909708e-05  2.3402377189283836e-05  2.3403608098622617e-05  2.3404129874086469e-05  2.3404019649185201e-05  2.3403420194517567e-05  2.3402521076317722e-05  2.3401532929292485e-05  2.3400658612548887e-05  2.3400065183720576e-05  2.3399859633048627e-05  2.3412665697342586e-05  2.3412843638461507e-05  2.3413368492481325e-05  2.3414168739572519e-05  2.3415131754138800e-05  2.3416109788645850e-05  2.3416927534199112e-05  2.3417390831395831e-05  2.3417296246841507e-05  2.3416441508069160e-05  2.3414636936334370e-05  2.3411717929775484e-05  2.3407558223489214e-05  2.3402083173380618e-05  2.3395281824280169e-05  2.3387216190596886e-05  2.3378026124741898e-05  2.3367928430453423e-05  2.3357209471738901e-05  2.3346211341613941e-05  2.3335312548156650e-05  2.3324904983202338e-05  2.3315369496091052e-05  2.3307052569517596e-05  2.3300246328541695e-05  2.3295173456235560e-05  2.3291977702021347e-05  2.3290719787449288e-05  2.3291377872026158e-05  2.3293851482866114e-05  2.3297967937934171e-05  2.3303490669419768e-05  2.3310129276629880e-05  2.3317551420785054e-05  2.3325396719280525e-05  2.3333292613943694e-05  2.3340871863482333e-05  2.3347790953611155e-05  2.3353748412319272e-05  2.3358501800669897e-05  2.3361882027046079e-05  2.3363803606239366e-05  2.3364269574839368e-05  2.3363370024073315e-05  2.3361273666012854e-05  2.3358212523220470e-05  2.3354460678225371e-05  2.3350308917545978e-05  2.3346037878733156e-05  2.3341892768033521e-05  2.3338062714489386e-05  2.3334667312842378e-05  2.3331751952617015e-05  2.3329292311559825e-05  2.3327207142818915e-05  2.3325377431383091e-05  2.3323669292353263e-05  2.3321957690715423e-05  2.3320148149229806e-05  2.3318193991728547e-05  2.3316107242628872e-05  2.3313961986708756e-05  2.3311889735701833e-05  2.3310067127670812e-05  2.3308697086958609e-05  2.3307985363194961e-05  2.3308115073192428e-05  2.3309222371889545e-05  2.3311376538753083e-05  2.3314567467068938e-05  2.3318702739142169e-05  2.3323615220477102e-05  2.3329080581635663e-05  2.3334842610629600e-05  2.3340642891021225e-05  2.3346250634626324e-05  2.3351488327471305e-05  2.3356249410664184e-05  2.3360505391543851e-05  2.3364301381953402e-05  2.3367740839276825e-05  2.3370961962987740e-05  2.3374109508335214e-05  2.3377306505485252e-05  2.3380630390799992e-05  2.3384097352640064e-05  2.3387657371332219e-05  2.3391200701005145e-05  2.3394574681882305e-05  2.3397608094083117e-05  2.3400139050746994e-05  2.3402041884920256e-05  2.3403248699383386e-05  2.3403762172661568e-05  2.3403657669950335e-05  2.3403074424543069e-05  2.3402197230070059e-05  2.3401231443926475e-05  2.3400374956850019e-05  2.3399791052321047e-05  2.3399585855471958e-05  2.3411929114449552e-05  2.3412086348250428e-05  2.3412557375619728e-05  2.3413274322613579e-05  2.3414128923567388e-05  2.3414978771340398e-05  2.3415654962401519e-05  2.3415970831578379e-05  2.3415731559151190e-05  2.3414744616996819e-05  2.3412831113642133e-05  2.3409837997676499e-05  2.3405650778090329e-05  2.3400205997502892e-05  2.3393502281882080e-05  2.3385608527367460e-05  2.3376667774319522e-05  2.3366895601814955e-05  2.3356572427167192e-05  2.3346029834326558e-05  2.3335631863415176e-05  2.3325752929575994e-05  2.3316754555949185e-05  2.3308963278035128e-05  2.3302651840116814e-05  2.3298025190798310e-05  2.3295211935600112e-05  2.3294261040979503e-05  2.3295142935627811e-05  2.3297753874499824e-05  2.3301922537126988e-05  2.3307418207006774e-05  2.3313960327283317e-05  2.3321229560203121e-05  2.3328880581867455e-05  2.3336556710362483e-05  2.3343906165409033e-05  2.3350599393132199e-05  2.3356346547302107e-05  2.3360913949159734e-05  2.3364138173224437e-05  2.3365936341143164e-05  2.3366311277171037e-05  2.3365350429162187e-05  2.3363217925875133e-05  2.3360139829086373e-05  2.3356383491952554e-05  2.3352232830196891e-05  2.3347962076815043e-05  2.3343811041534601e-05  2.3339964894236167e-05  2.3336540989050532e-05  2.3333584309741259e-05  2.3331071917143018e-05  2.3328925543334950e-05  2.3327030426902085e-05  2.3325257778662434e-05  2.3323487974080455e-05  2.3321631663456901e-05  2.3319646389021350e-05  2.3317546893178029e-05  2.3315408001851433e-05  2.3313359711458528e-05  2.3311574870318301e-05  2.3310250612584577e-05  2.3309585448938162e-05  2.3309754579273197e-05  2.3310886459830405e-05  2.3313043797104512e-05  2.3316211837627729e-05  2.3320296028848451e-05  2.3325129899348501e-05  2.3330492515588926e-05  2.3336133368342274e-05  2.3341801302099281e-05  2.3347273363979912e-05  2.3352379362889582e-05  2.3357018523141530e-05  2.3361165797653041e-05  2.3364866984329620e-05  2.3368223513619841e-05  2.3371369372888904e-05  2.3374443851773779e-05  2.3377564437113734e-05  2.3380804149361750e-05  2.3384176894180478e-05  2.3387633112281234e-05  2.3391066351169286e-05  2.3394329621793554e-05  2.3397258829905642e-05  2.3399699447942688e-05  2.3401532106412411e-05  2.3402693011574369e-05  2.3403185988100527e-05  2.3403084330995830e-05  2.3402522275624394e-05  2.3401677474654858e-05  2.3400747154890579e-05  2.3399921446613063e-05  2.3399357677383565e-05  2.3399159275332355e-05  2.3410770117498639e-05  2.3410903058261591e-05  2.3411306269405368e-05  2.3411915942148292e-05  2.3412629564974994e-05  2.3413312027399884e-05  2.3413803206290989e-05  2.3413926681476401e-05  2.3413499352648347e-05  2.3412341868973186e-05  2.3410289829810587e-05  2.3407205600069774e-05  2.3402990312372485e-05  2.3397595276054089e-05  2.3391031694719288e-05  2.3383377421378167e-05  2.3374779527499991e-05  2.3365451750503407e-05  2.3355666383703012e-05  2.3345740816804607e-05  2.3336019631784088e-05  2.3326853797818734e-05  2.3318578967776180e-05  2.3311495043100372e-05  2.3305848972151190e-05  2.3301822190653934e-05  2.3299523317721644e-05  2.3298985887464917e-05  2.3300170246845668e-05  2.3302968446828124e-05  2.3307211034382104e-05  2.3312675022068277e-05  2.3319092787364809e-05  2.3326162044898167e-05  2.3333557213226648e-05  2.3340942430525065e-05  2.3347986209246997e-05  2.3354377348817639e-05  2.3359841337295789e-05  2.3364156133790886e-05  2.3367165976261349e-05  2.3368791738701551e-05  2.3369036406437644e-05  2.3367984490236829e-05  2.3365794687304332e-05  2.3362685809474220e-05  2.3358916867350741e-05  2.3354763094523182e-05  2.3350490447831590e-05  2.3346331555042257e-05  2.3342466072113264e-05  2.3339007916732402e-05  2.3336000928006984e-05  2.3333423325621033e-05  2.3331200123435656e-05  2.3329221609658792e-05  2.3327365300746970e-05  2.3325518483940360e-05  2.3323598568317728e-05  2.3321568884312412e-05  2.3319448195305229e-05  2.3317312908358835e-05  2.3315291722635048e-05  2.3313553199099646e-05  2.3312287461735029e-05  2.3311683930704999e-05  2.3311907589962543e-05  2.3313076708877157e-05  2.3315245044144978e-05  2.3318391232215033e-05  2.3322417296071356e-05  2.3327156989316233e-05  2.3332393252071491e-05  2.3337882605907322e-05  2.3343383142025803e-05  2.3348682090471389e-05  2.3353618935923162e-05  2.3358100683256768e-05  2.3362107068980795e-05  2.3365685064084712e-05  2.3368933666644534e-05  2.3371981474890096e-05  2.3374960629528435e-05  2.3377981247990390e-05  2.3381110361095424e-05  2.3384358622678498e-05  2.3387676811019255e-05  2.3390962574486581e-05  2.3394076241527601e-05  2.3396863079640709e-05  2.3399178383288474e-05  2.3400911361240140e-05  2.3402004042405259e-05  2.3402462272314426e-05  2.3402357169013499e-05  2.3401816912098997e-05  2.3401010193602535e-05  2.3400123837906251e-05  2.3399337848183305e-05  2.3398801401158903e-05  2.3398613113101588e-05  2.3409085549609137e-05  2.3409191745345217e-05  2.3409516807056808e-05  2.3410001382088279e-05  2.3410549753781924e-05  2.3411035689161485e-05  2.3411309868273866e-05  2.3411208517434364e-05  2.3410562984058201e-05  2.3409210088354349e-05  2.3407003092696148e-05  2.3403823003118115e-05  2.3399589680577121e-05  2.3394271967187594e-05  2.3387895821211937e-05  2.3380549385651883e-05  2.3372384030249020e-05  2.3363610702353986e-05  2.3354491362747020e-05  2.3345325815831330e-05  2.3336434808261192e-05  2.3328140791628313e-05  2.3320748131078216e-05  2.3314524692084127e-05  2.3309686574595743e-05  2.3306387276423140e-05  2.3304711841827256e-05  2.3304675761656159e-05  2.3306227748866078e-05  2.3309255186570608e-05  2.3313591095065935e-05  2.3319021820622506e-05  2.3325295148443156e-05  2.3332128996194124e-05  2.3339221108397699e-05  2.3346260184527545e-05  2.3352938655824220e-05  2.3358966951255034e-05  2.3364088652097502e-05  2.3368095510516814e-05  2.3370840969660915e-05  2.3372250631435005e-05  2.3372328128124135e-05  2.3371155109244151e-05  2.3368884572165418e-05  2.3365727514761864e-05  2.3361933783705387e-05  2.3357768893519628e-05  2.3353489330025303e-05  2.3349319265415787e-05  2.3345431587125580e-05  2.3341935647010332e-05  2.3338873236683574e-05  2.3336223142497638e-05  2.3333913436370303e-05  2.3331839626658555e-05  2.3329886090347509e-05  2.3327947917322661e-05  2.3325950413810679e-05  2.3323863957401832e-05  2.3321712554274241e-05  2.3319575204241569e-05  2.3317579944983415e-05  2.3315891178873152e-05  2.3314691570716012e-05  2.3314160431949576e-05  2.3314451037838721e-05  2.3315669676323445e-05  2.3317859286186365e-05  2.3320990202164107e-05  2.3324959739991146e-05  2.3329601180434041e-05  2.3334701313117125e-05  2.3340024323629967e-05  2.3345338718464475e-05  2.3350443404566124e-05  2.3355189098071954e-05  2.3359491929834644e-05  2.3363337323722042e-05  2.3366773738399668e-05  2.3369897430311734e-05  2.3372830762100692e-05  2.3375697535359428e-05  2.3378599228980308e-05  2.3381595822195793e-05  2.3384694114801106e-05  2.3387845250220854e-05  2.3390951689322537e-05  2.3393882401277506e-05  2.3396493764303700e-05  2.3398652805107038e-05  2.3400259087861320e-05  2.3401261837139961e-05  2.3401669687429929e-05  2.3401551644778084e-05  2.3401029211414183e-05  2.3400260932457173e-05  2.3399421675946741e-05  2.3398679619948218e-05  2.3398174138220132e-05  2.3397997558957669e-05  2.3406768503113254e-05  2.3406847032965028e-05  2.3407088151814652e-05  2.3407437235802426e-05  2.3407806052221827e-05  2.3408078363926734e-05  2.3408117173622937e-05  2.3407773232840828e-05  2.3406894516521469e-05  2.3405336414433983e-05  2.3402972357700942e-05  2.3399704465327189e-05  2.3395473597911487e-05  2.3390268017849259e-05  2.3384129756065174e-05  2.3377157825211081e-05  2.3369507605328606e-05  2.3361386031114628e-05  2.3353042586859422e-05  2.3344756527898495e-05  2.3336821166535121e-05  2.3329526450544694e-05  2.3323141364760271e-05  2.3317897817419148e-05  2.3313977551342400e-05  2.3311503211644081e-05  2.3310534059394522e-05  2.3311066088948903e-05  2.3313035680330247e-05  2.3316325570161669e-05  2.3320771937763474e-05  2.3326171738240270e-05  2.3332289931504673e-05  2.3338866772130943e-05  2.3345625679830745e-05  2.3352282312692513e-05  2.3358555303503188e-05  2.3364178745570691e-05  2.3368916016830775e-05  2.3372574010515304e-05  2.3375016396842172e-05  2.3376174264371574e-05  2.3376052457734074e-05  2.3374730188574749e-05  2.3372355053317760e-05  2.3369130392727407e-05  2.3365296864015379e-05  2.3361110012138470e-05  2.3356816352840465e-05  2.3352630865569202e-05  2.3348718743180472e-05  2.3345183739310636e-05  2.3342064562792654e-05  2.3339339637946190e-05  2.3336939374642293e-05  2.3334764073726378e-05  2.3332704894813593e-05  2.3330665025810105e-05  2.3328578321793301e-05  2.3326423153385189e-05  2.3324229902137721e-05  2.3322081334609266e-05  2.3320105875958663e-05  2.3318464530942076e-05  2.3317332847273117e-05  2.3316879878214571e-05  2.3317246552229517e-05  2.3318526130803474e-05  2.3320749431310077e-05  2.3323877114243873e-05  2.3327800542980747e-05  2.3332351575892662e-05  2.3337320308185215e-05  2.3342478484806580e-05  2.3347605315550852e-05  2.3352511949668611e-05  2.3357061018060206e-05  2.3361178407727172e-05  2.3364855658775949e-05  2.3368142849222869e-05  2.3371133303214875e-05  2.3373942684551314e-05  2.3376685833538196e-05  2.3379454963370733e-05  2.3382302532237029e-05  2.3385231312617288e-05  2.3388193022440053e-05  2.3391095544306933e-05  2.3393817441975848e-05  2.3396227386066699e-05  2.3398205389120074e-05  2.3399662530092986e-05  2.3400556147174252e-05  2.3400898235518283e-05  2.3400755865949627e-05  2.3400243654818635e-05  2.3399509465939214e-05  2.3398715443232973e-05  2.3398017044151879e-05  2.3397542922042267e-05  2.3397378300788163e-05  2.3403723617029445e-05  2.3403775250575523e-05  2.3403931812935778e-05  2.3404143440214396e-05  2.3404329634852100e-05  2.3404384695904853e-05  2.3404184810782514e-05  2.3403596436765786e-05  2.3402485632443419e-05  2.3400728004086722e-05  2.3398218867370766e-05  2.3394883091573385e-05  2.3390683939257034e-05  2.3385630112132360e-05  2.3379780224919111e-05  2.3373244074647701e-05  2.3366180326836538e-05  2.3358790547739646e-05  2.3351309821953792e-05  2.3343994482442000e-05  2.3337107747312019e-05  2.3330904308798663e-05  2.3325615131301447e-05  2.3321433823322703e-05  2.3318505869346327e-05  2.3316921685900776e-05  2.3316713919691449e-05  2.3317858745312392e-05  2.3320280320053398e-05  2.3323857187766257e-05  2.3328429396885163e-05  2.3333805402903951e-05  2.3339768350629423e-05  2.3346081903432061e-05  2.3352496232708953e-05  2.3358754978435271e-05  2.3364603893467725e-05  2.3369801516309733e-05  2.3374131662191051e-05  2.3377416898321847e-05  2.3379531608058851e-05  2.3380412877298068e-05  2.3380067356221085e-05  2.3378572516095738e-05  2.3376071326544749e-05  2.3372760246049896e-05  2.3368871409223138e-05  2.3364650834767097e-05  2.3360335193859278e-05  2.3356130030776939e-05  2.3352192239094634e-05  2.3348619067591319e-05  2.3345445037240002e-05  2.3342647036323857e-05  2.3340156707512286e-05  2.3337878238597020e-05  2.3335708977473900e-05  2.3333560009025834e-05  2.3331373972366577e-05  2.3329137897268419e-05  2.3326889578039669e-05  2.3324716842869615e-05  2.3322749898846597e-05  2.3321147665487350e-05  2.3320079626922393e-05  2.3319705231708854e-05  2.3320153234947142e-05  2.3321503559890050e-05  2.3323774173224307e-05  2.3326915038319906e-05  2.3330810402818188e-05  2.3335289550814982e-05  2.3340144866848369e-05  2.3345154853116933e-05  2.3350108861453674e-05  2.3354829943142396e-05  2.3359192472225994e-05  2.3363132022790852e-05  2.3366646223522007e-05  2.3369786743800444e-05  2.3372643932356441e-05  2.3375326707677695e-05  2.3377940930235284e-05  2.3380569596267349e-05  2.3383257793922205e-05  2.3386004541712356e-05  2.3388762526773210e-05  2.3391445546826708e-05  2.3393942312718802e-05  2.3396134351368830e-05  2.3397915190803437e-05  2.3399207885426905e-05  2.3399978259817229e-05  2.3400241951399504e-05  2.3400064293590874e-05  2.3399553141208859e-05  2.3398845733355424e-05  2.3398091475617817e-05  2.3397433010372373e-05  2.3396988092452413e-05  2.3396834607249608e-05  2.3399881759131609e-05  2.3399908973234227e-05  2.3399985857446352e-05  2.3400067014883761e-05  2.3400079407706880e-05  2.3399927723764659e-05  2.3399501402641128e-05  2.3398682933953440e-05  2.3397357035042071e-05  2.3395420284824435e-05  2.3392790706784146e-05  2.3389416671588646e-05  2.3385284384524329e-05  2.3380423204479337e-05  2.3374908155218402e-05  2.3368859230935463e-05  2.3362437410843573e-05  2.3355837604215675e-05  2.3349278988610835e-05  2.3342993367118043e-05  2.3337212286225796e-05  2.3332153766722038e