<?xml version="1.0"?>
<VTKFile type="UnstructuredGrid"  version="0.1"  >
<UnstructuredGrid>
<Piece  NumberOfPoints="10201" NumberOfCells="20000">
<Points>
<DataArray  type="Float64"  NumberOfComponents="3"  format="ascii">0 0 0  0.25 0 0  0.5 0 0  0.75 0 0  1 0 0  1.25 0 0  1.5 0 0  1.75 0 0  2 0 0  2.25 0 0  2.5 0 0  2.75 0 0  3 0 0  3.25 0 0  3.5 0 0  3.75 0 0  4 0 0  4.25 0 0  4.5 0 0  4.75 0 0  5 0 0  5.25 0 0  5.5 0 0  5.75 0 0  6 0 0  6.25 0 0  6.5 0 0  6.75 0 0  7 0 0  7.25 0 0  7.5 0 0  7.75 0 0  8 0 0  8.25 0 0  8.5 0 0  8.75 0 0  9 0 0  9.25 0 0  9.5 0 0  9.75 0 0  10 0 0  10.25 0 0  10.5 0 0  10.75 0 0  11 0 0  11.25 0 0  11.5 0 0  11.75 0 0  12 0 0  12.25 0 0  12.5 0 0  12.75 0 0  13 0 0  13.25 0 0  13.5 0 0  13.75 0 0  14 0 0  14.25 0 0  14.5 0 0  14.75 0 0  15 0 0  15.25 0 0  15.5 0 0  15.75 0 0  16 0 0  16.25 0 0  16.5 0 0  16.75 0 0  17 0 0  17.25 0 0  17.5 0 0  17.75 0 0  18 0 0  18.25 0 0  18.5 0 0  18.75 0 0  19 0 0  19.25 0 0  19.5 0 0  19.75 0 0  20 0 0  20.25 0 0  20.5 0 0  20.75 0 0  21 0 0  21.25 0 0  21.5 0 0  21.75 0 0  22 0 0  22.25 0 0  22.5 0 0  22.75 0 0  23 0 0  23.25 0 0  23.5 0 0  23.75 0 0  24 0 0  24.25 0 0  24.5 0 0  24.75 0 0  25 0 0  0 0.25 0  0.25 0.25 0  0.5 0.25 0  0.75 0.25 0  1 0.25 0  1.25 0.25 0  1.5 0.25 0  1.75 0.25 0  2 0.25 0  2.25 0.25 0  2.5 0.25 0  2.75 0.25 0  3 0.25 0  3.25 0.25 0  3.5 0.25 0  3.75 0.25 0  4 0.25 0  4.25 0.25 0  4.5 0.25 0  4.75 0.25 0  5 0.25 0  5.25 0.25 0  5.5 0.25 0  5.75 0.25 0  6 0.25 0  6.25 0.25 0  6.5 0.25 0  6.75 0.25 0  7 0.25 0  7.25 0.25 0  7.5 0.25 0  7.75 0.25 0  8 0.25 0  8.25 0.25 0  8.5 0.25 0  8.75 0.25 0  9 0.25 0  9.25 0.25 0  9.5 0.25 0  9.75 0.25 0  10 0.25 0  10.25 0.25 0  10.5 0.25 0  10.75 0.25 0  11 0.25 0  11.25 0.25 0  11.5 0.25 0  11.75 0.25 0  12 0.25 0  12.25 0.25 0  12.5 0.25 0  12.75 0.25 0  13 0.25 0  13.25 0.25 0  13.5 0.25 0  13.75 0.25 0  14 0.25 0  14.25 0.25 0  14.5 0.25 0  14.75 0.25 0  15 0.25 0  15.25 0.25 0  15.5 0.25 0  15.75 0.25 0  16 0.25 0  16.25 0.25 0  16.5 0.25 0  16.75 0.25 0  17 0.25 0  17.25 0.25 0  17.5 0.25 0  17.75 0.25 0  18 0.25 0  18.25 0.25 0  18.5 0.25 0  18.75 0.25 0  19 0.25 0  19.25 0.25 0  19.5 0.25 0  19.75 0.25 0  20 0.25 0  20.25 0.25 0  20.5 0.25 0  20.75 0.25 0  21 0.25 0  21.25 0.25 0  21.5 0.25 0  21.75 0.25 0  22 0.25 0  22.25 0.25 0  22.5 0.25 0  22.75 0.25 0  23 0.25 0  23.25 0.25 0  23.5 0.25 0  23.75 0.25 0  24 0.25 0  24.25 0.25 0  24.5 0.25 0  24.75 0.25 0  25 0.25 0  0 0.5 0  0.25 0.5 0  0.5 0.5 0  0.75 0.5 0  1 0.5 0  1.25 0.5 0  1.5 0.5 0  1.75 0.5 0  2 0.5 0  2.25 0.5 0  2.5 0.5 0  2.75 0.5 0  3 0.5 0  3.25 0.5 0  3.5 0.5 0  3.75 0.5 0  4 0.5 0  4.25 0.5 0  4.5 0.5 0  4.75 0.5 0  5 0.5 0  5.25 0.5 0  5.5 0.5 0  5.75 0.5 0  6 0.5 0  6.25 0.5 0  6.5 0.5 0  6.75 0.5 0  7 0.5 0  7.25 0.5 0  7.5 0.5 0  7.75 0.5 0  8 0.5 0  8.25 0.5 0  8.5 0.5 0  8.75 0.5 0  9 0.5 0  9.25 0.5 0  9.5 0.5 0  9.75 0.5 0  10 0.5 0  10.25 0.5 0  10.5 0.5 0  10.75 0.5 0  11 0.5 0  11.25 0.5 0  11.5 0.5 0  11.75 0.5 0  12 0.5 0  12.25 0.5 0  12.5 0.5 0  12.75 0.5 0  13 0.5 0  13.25 0.5 0  13.5 0.5 0  13.75 0.5 0  14 0.5 0  14.25 0.5 0  14.5 0.5 0  14.75 0.5 0  15 0.5 0  15.25 0.5 0  15.5 0.5 0  15.75 0.5 0  16 0.5 0  16.25 0.5 0  16.5 0.5 0  16.75 0.5 0  17 0.5 0  17.25 0.5 0  17.5 0.5 0  17.75 0.5 0  18 0.5 0  18.25 0.5 0  18.5 0.5 0  18.75 0.5 0  19 0.5 0  19.25 0.5 0  19.5 0.5 0  19.75 0.5 0  20 0.5 0  20.25 0.5 0  20.5 0.5 0  20.75 0.5 0  21 0.5 0  21.25 0.5 0  21.5 0.5 0  21.75 0.5 0  22 0.5 0  22.25 0.5 0  22.5 0.5 0  22.75 0.5 0  23 0.5 0  23.25 0.5 0  23.5 0.5 0  23.75 0.5 0  24 0.5 0  24.25 0.5 0  24.5 0.5 0  24.75 0.5 0  25 0.5 0  0 0.75 0  0.25 0.75 0  0.5 0.75 0  0.75 0.75 0  1 0.75 0  1.25 0.75 0  1.5 0.75 0  1.75 0.75 0  2 0.75 0  2.25 0.75 0  2.5 0.75 0  2.75 0.75 0  3 0.75 0  3.25 0.75 0  3.5 0.75 0  3.75 0.75 0  4 0.75 0  4.25 0.75 0  4.5 0.75 0  4.75 0.75 0  5 0.75 0  5.25 0.75 0  5.5 0.75 0  5.75 0.75 0  6 0.75 0  6.25 0.75 0  6.5 0.75 0  6.75 0.75 0  7 0.75 0  7.25 0.75 0  7.5 0.75 0  7.75 0.75 0  8 0.75 0  8.25 0.75 0  8.5 0.75 0  8.75 0.75 0  9 0.75 0  9.25 0.75 0  9.5 0.75 0  9.75 0.75 0  10 0.75 0  10.25 0.75 0  10.5 0.75 0  10.75 0.75 0  11 0.75 0  11.25 0.75 0  11.5 0.75 0  11.75 0.75 0  12 0.75 0  12.25 0.75 0  12.5 0.75 0  12.75 0.75 0  13 0.75 0  13.25 0.75 0  13.5 0.75 0  13.75 0.75 0  14 0.75 0  14.25 0.75 0  14.5 0.75 0  14.75 0.75 0  15 0.75 0  15.25 0.75 0  15.5 0.75 0  15.75 0.75 0  16 0.75 0  16.25 0.75 0  16.5 0.75 0  16.75 0.75 0  17 0.75 0  17.25 0.75 0  17.5 0.75 0  17.75 0.75 0  18 0.75 0  18.25 0.75 0  18.5 0.75 0  18.75 0.75 0  19 0.75 0  19.25 0.75 0  19.5 0.75 0  19.75 0.75 0  20 0.75 0  20.25 0.75 0  20.5 0.75 0  20.75 0.75 0  21 0.75 0  21.25 0.75 0  21.5 0.75 0  21.75 0.75 0  22 0.75 0  22.25 0.75 0  22.5 0.75 0  22.75 0.75 0  23 0.75 0  23.25 0.75 0  23.5 0.75 0  23.75 0.75 0  24 0.75 0  24.25 0.75 0  24.5 0.75 0  24.75 0.75 0  25 0.75 0  0 1 0  0.25 1 0  0.5 1 0  0.75 1 0  1 1 0  1.25 1 0  1.5 1 0  1.75 1 0  2 1 0  2.25 1 0  2.5 1 0  2.75 1 0  3 1 0  3.25 1 0  3.5 1 0  3.75 1 0  4 1 0  4.25 1 0  4.5 1 0  4.75 1 0  5 1 0  5.25 1 0  5.5 1 0  5.75 1 0  6 1 0  6.25 1 0  6.5 1 0  6.75 1 0  7 1 0  7.25 1 0  7.5 1 0  7.75 1 0  8 1 0  8.25 1 0  8.5 1 0  8.75 1 0  9 1 0  9.25 1 0  9.5 1 0  9.75 1 0  10 1 0  10.25 1 0  10.5 1 0  10.75 1 0  11 1 0  11.25 1 0  11.5 1 0  11.75 1 0  12 1 0  12.25 1 0  12.5 1 0  12.75 1 0  13 1 0  13.25 1 0  13.5 1 0  13.75 1 0  14 1 0  14.25 1 0  14.5 1 0  14.75 1 0  15 1 0  15.25 1 0  15.5 1 0  15.75 1 0  16 1 0  16.25 1 0  16.5 1 0  16.75 1 0  17 1 0  17.25 1 0  17.5 1 0  17.75 1 0  18 1 0  18.25 1 0  18.5 1 0  18.75 1 0  19 1 0  19.25 1 0  19.5 1 0  19.75 1 0  20 1 0  20.25 1 0  20.5 1 0  20.75 1 0  21 1 0  21.25 1 0  21.5 1 0  21.75 1 0  22 1 0  22.25 1 0  22.5 1 0  22.75 1 0  23 1 0  23.25 1 0  23.5 1 0  23.75 1 0  24 1 0  24.25 1 0  24.5 1 0  24.75 1 0  25 1 0  0 1.25 0  0.25 1.25 0  0.5 1.25 0  0.75 1.25 0  1 1.25 0  1.25 1.25 0  1.5 1.25 0  1.75 1.25 0  2 1.25 0  2.25 1.25 0  2.5 1.25 0  2.75 1.25 0  3 1.25 0  3.25 1.25 0  3.5 1.25 0  3.75 1.25 0  4 1.25 0  4.25 1.25 0  4.5 1.25 0  4.75 1.25 0  5 1.25 0  5.25 1.25 0  5.5 1.25 0  5.75 1.25 0  6 1.25 0  6.25 1.25 0  6.5 1.25 0  6.75 1.25 0  7 1.25 0  7.25 1.25 0  7.5 1.25 0  7.75 1.25 0  8 1.25 0  8.25 1.25 0  8.5 1.25 0  8.75 1.25 0  9 1.25 0  9.25 1.25 0  9.5 1.25 0  9.75 1.25 0  10 1.25 0  10.25 1.25 0  10.5 1.25 0  10.75 1.25 0  11 1.25 0  11.25 1.25 0  11.5 1.25 0  11.75 1.25 0  12 1.25 0  12.25 1.25 0  12.5 1.25 0  12.75 1.25 0  13 1.25 0  13.25 1.25 0  13.5 1.25 0  13.75 1.25 0  14 1.25 0  14.25 1.25 0  14.5 1.25 0  14.75 1.25 0  15 1.25 0  15.25 1.25 0  15.5 1.25 0  15.75 1.25 0  16 1.25 0  16.25 1.25 0  16.5 1.25 0  16.75 1.25 0  17 1.25 0  17.25 1.25 0  17.5 1.25 0  17.75 1.25 0  18 1.25 0  18.25 1.25 0  18.5 1.25 0  18.75 1.25 0  19 1.25 0  19.25 1.25 0  19.5 1.25 0  19.75 1.25 0  20 1.25 0  20.25 1.25 0  20.5 1.25 0  20.75 1.25 0  21 1.25 0  21.25 1.25 0  21.5 1.25 0  21.75 1.25 0  22 1.25 0  22.25 1.25 0  22.5 1.25 0  22.75 1.25 0  23 1.25 0  23.25 1.25 0  23.5 1.25 0  23.75 1.25 0  24 1.25 0  24.25 1.25 0  24.5 1.25 0  24.75 1.25 0  25 1.25 0  0 1.5 0  0.25 1.5 0  0.5 1.5 0  0.75 1.5 0  1 1.5 0  1.25 1.5 0  1.5 1.5 0  1.75 1.5 0  2 1.5 0  2.25 1.5 0  2.5 1.5 0  2.75 1.5 0  3 1.5 0  3.25 1.5 0  3.5 1.5 0  3.75 1.5 0  4 1.5 0  4.25 1.5 0  4.5 1.5 0  4.75 1.5 0  5 1.5 0  5.25 1.5 0  5.5 1.5 0  5.75 1.5 0  6 1.5 0  6.25 1.5 0  6.5 1.5 0  6.75 1.5 0  7 1.5 0  7.25 1.5 0  7.5 1.5 0  7.75 1.5 0  8 1.5 0  8.25 1.5 0  8.5 1.5 0  8.75 1.5 0  9 1.5 0  9.25 1.5 0  9.5 1.5 0  9.75 1.5 0  10 1.5 0  10.25 1.5 0  10.5 1.5 0  10.75 1.5 0  11 1.5 0  11.25 1.5 0  11.5 1.5 0  11.75 1.5 0  12 1.5 0  12.25 1.5 0  12.5 1.5 0  12.75 1.5 0  13 1.5 0  13.25 1.5 0  13.5 1.5 0  13.75 1.5 0  14 1.5 0  14.25 1.5 0  14.5 1.5 0  14.75 1.5 0  15 1.5 0  15.25 1.5 0  15.5 1.5 0  15.75 1.5 0  16 1.5 0  16.25 1.5 0  16.5 1.5 0  16.75 1.5 0  17 1.5 0  17.25 1.5 0  17.5 1.5 0  17.75 1.5 0  18 1.5 0  18.25 1.5 0  18.5 1.5 0  18.75 1.5 0  19 1.5 0  19.25 1.5 0  19.5 1.5 0  19.75 1.5 0  20 1.5 0  20.25 1.5 0  20.5 1.5 0  20.75 1.5 0  21 1.5 0  21.25 1.5 0  21.5 1.5 0  21.75 1.5 0  22 1.5 0  22.25 1.5 0  22.5 1.5 0  22.75 1.5 0  23 1.5 0  23.25 1.5 0  23.5 1.5 0  23.75 1.5 0  24 1.5 0  24.25 1.5 0  24.5 1.5 0  24.75 1.5 0  25 1.5 0  0 1.75 0  0.25 1.75 0  0.5 1.75 0  0.75 1.75 0  1 1.75 0  1.25 1.75 0  1.5 1.75 0  1.75 1.75 0  2 1.75 0  2.25 1.75 0  2.5 1.75 0  2.75 1.75 0  3 1.75 0  3.25 1.75 0  3.5 1.75 0  3.75 1.75 0  4 1.75 0  4.25 1.75 0  4.5 1.75 0  4.75 1.75 0  5 1.75 0  5.25 1.75 0  5.5 1.75 0  5.75 1.75 0  6 1.75 0  6.25 1.75 0  6.5 1.75 0  6.75 1.75 0  7 1.75 0  7.25 1.75 0  7.5 1.75 0  7.75 1.75 0  8 1.75 0  8.25 1.75 0  8.5 1.75 0  8.75 1.75 0  9 1.75 0  9.25 1.75 0  9.5 1.75 0  9.75 1.75 0  10 1.75 0  10.25 1.75 0  10.5 1.75 0  10.75 1.75 0  11 1.75 0  11.25 1.75 0  11.5 1.75 0  11.75 1.75 0  12 1.75 0  12.25 1.75 0  12.5 1.75 0  12.75 1.75 0  13 1.75 0  13.25 1.75 0  13.5 1.75 0  13.75 1.75 0  14 1.75 0  14.25 1.75 0  14.5 1.75 0  14.75 1.75 0  15 1.75 0  15.25 1.75 0  15.5 1.75 0  15.75 1.75 0  16 1.75 0  16.25 1.75 0  16.5 1.75 0  16.75 1.75 0  17 1.75 0  17.25 1.75 0  17.5 1.75 0  17.75 1.75 0  18 1.75 0  18.25 1.75 0  18.5 1.75 0  18.75 1.75 0  19 1.75 0  19.25 1.75 0  19.5 1.75 0  19.75 1.75 0  20 1.75 0  20.25 1.75 0  20.5 1.75 0  20.75 1.75 0  21 1.75 0  21.25 1.75 0  21.5 1.75 0  21.75 1.75 0  22 1.75 0  22.25 1.75 0  22.5 1.75 0  22.75 1.75 0  23 1.75 0  23.25 1.75 0  23.5 1.75 0  23.75 1.75 0  24 1.75 0  24.25 1.75 0  24.5 1.75 0  24.75 1.75 0  25 1.75 0  0 2 0  0.25 2 0  0.5 2 0  0.75 2 0  1 2 0  1.25 2 0  1.5 2 0  1.75 2 0  2 2 0  2.25 2 0  2.5 2 0  2.75 2 0  3 2 0  3.25 2 0  3.5 2 0  3.75 2 0  4 2 0  4.25 2 0  4.5 2 0  4.75 2 0  5 2 0  5.25 2 0  5.5 2 0  5.75 2 0  6 2 0  6.25 2 0  6.5 2 0  6.75 2 0  7 2 0  7.25 2 0  7.5 2 0  7.75 2 0  8 2 0  8.25 2 0  8.5 2 0  8.75 2 0  9 2 0  9.25 2 0  9.5 2 0  9.75 2 0  10 2 0  10.25 2 0  10.5 2 0  10.75 2 0  11 2 0  11.25 2 0 
[...]
<PointData  Scalars="f_26"> 
<DataArray  type="Float64"  Name="f_26"  format="ascii">2.3535861990777440e-05  2.3535426479632108e-05  2.3534543169687182e-05  2.3533090721774866e-05  2.3530961679071686e-05  2.3528035852797343e-05  2.3524181122658254e-05  2.3519261933258604e-05  2.3513150507927336e-05  2.3505738993989577e-05  2.3496951478418152e-05  2.3486754994271266e-05  2.3475168713826321e-05  2.3462270605364637e-05  2.3448200950482332e-05  2.3433162287587469e-05  2.3417415563397708e-05  2.3401272526983011e-05  2.3385084670920137e-05  2.3369229285516855e-05  2.3354093415795699e-05  2.3340056669840031e-05  2.3327473901513845e-05  2.3316658773272351e-05  2.3307869103948283e-05  2.3301294744712516e-05  2.3297048535557400e-05  2.3295160705965472e-05  2.3295576917835983e-05  2.3298160010719274e-05  2.3302695388283897e-05  2.3308899863106451e-05  2.3316433640364250e-05  2.3324914966860136e-05  2.3333936809249646e-05  2.3343084771936937e-05  2.3351955341190576e-05  2.3360173466290336e-05  2.3367408475558643e-05  2.3373387384360648e-05  2.3377904787046863e-05  2.3380828732153482e-05  2.3382102249469688e-05  2.3381740510897629e-05  2.3379823939625817e-05  2.3376487904026819e-05  2.3371909911265164e-05  2.3366295419226784e-05  2.3359863487652794e-05  2.3352833473382352e-05  2.3345413836439131e-05  2.3337793874141433e-05  2.3330138864660190e-05  2.3322588716432237e-05  2.3315259829768354e-05  2.3308249527681234e-05  2.3301642145785157e-05  2.3295515717570933e-05  2.3289948168852349e-05  2.3285022044816650e-05  2.3280827019686699e-05  2.3277459753237187e-05  2.3275021021033360e-05  2.3273610412243581e-05  2.3273319216858247e-05  2.3274222375198782e-05  2.3276370507719674e-05  2.3279783064451242e-05  2.3284443525792684e-05  2.3290297358406364e-05  2.3297253105127532e-05  2.3305186603961959e-05  2.3313947937791344e-05  2.3323370368124750e-05  2.3333280254632898e-05  2.3343506846285526e-05  2.3353890868737681e-05  2.3364291021435674e-05  2.3374587808661754e-05  2.3384684514504403e-05  2.3394505534342015e-05  2.3403992634612164e-05  2.3413099975467484e-05  2.3421788859830057e-05  2.3430023150708070e-05  2.3437766132939519e-05  2.3444979314083431e-05  2.3451623307443019e-05  2.3457660573605428e-05  2.3463059472250084e-05  2.3467798842896974e-05  2.3471872226658937e-05  2.3475290876103875e-05  2.3478084870419209e-05  2.3480301931002287e-05  2.3482003874460824e-05  2.3483260990015236e-05  2.3484144919426120e-05  2.3484720747907728e-05  2.3485038707845082e-05  2.3485123997311730e-05  2.3534894648649226e-05  2.3534584150720520e-05  2.3533727896421702e-05  2.3532279448455540e-05  2.3530148944106543e-05  2.3527221474488221e-05  2.3523367396275947e-05  2.3518452944620186e-05  2.3512351924496016e-05  2.3504957936013252e-05  2.3496196361430154e-05  2.3486035310334851e-05  2.3474494744101585e-05  2.3461653068629460e-05  2.3447650600367689e-05  2.3432689477565768e-05  2.3417029803116243e-05  2.3400982056012509e-05  2.3384896076089721e-05  2.3369147185695275e-05  2.3354120233537289e-05  2.3340192503294010e-05  2.3327716503111961e-05  2.3317003634722115e-05  2.3308309640654372e-05  2.3301822567429263e-05  2.3297653793071284e-05  2.3295832479864137e-05  2.3296303648694007e-05  2.3298929934062239e-05  2.3303496958382174e-05  2.3309722143133618e-05  2.3317266639031174e-05  2.3325749904599431e-05  2.3334766301486289e-05  2.3343902922756098e-05  2.3352757747321459e-05  2.3360957138072501e-05  2.3368171687680024e-05  2.3374129473966423e-05  2.3378625919816911e-05  2.3381529657886799e-05  2.3382784067605683e-05  2.3382404463478396e-05  2.3380471244864853e-05  2.3377119638421003e-05  2.3372526942654180e-05  2.3366898387955316e-05  2.3360452828551044e-05  2.3353409468049977e-05  2.3345976683527712e-05  2.3338343765025488e-05  2.3330676052937849e-05  2.3323113571840937e-05  2.3315772869989950e-05  2.3308751424765013e-05  2.3302133707169927e-05  2.3295997844621323e-05  2.3290421798193872e-05  2.3285488079395190e-05  2.3281286257306477e-05  2.3277912820334871e-05  2.3275468318669323e-05  2.3274052079823450e-05  2.3273755117064355e-05  2.3274652101177877e-05  2.3276793410958896e-05  2.3280198299262804e-05  2.3284850104260328e-05  2.3290694208378308e-05  2.3297639123662726e-05  2.3305560699685904e-05  2.3314309057811143e-05  2.3323717508171381e-05  2.3333612454434056e-05  2.3343823175222698e-05  2.3354190409027752e-05  2.3364572856957426e-05  2.3374851026900758e-05  2.3384928226960652e-05  2.3394728917440475e-05  2.3404194989199298e-05  2.3413280799020823e-05  2.3421947922237135e-05  2.3430160562487769e-05  2.3437882394503453e-05  2.3445075336227579e-05  2.3451700396581637e-05  2.3457720379881153e-05  2.3463103903915625e-05  2.3467829955474993e-05  2.3471892099561831e-05  2.3475301491998991e-05  2.3478088013336990e-05  2.3480299118246830e-05  2.3481996336279428e-05  2.3483249715134044e-05  2.3484130815363473e-05  2.3484705116945654e-05  2.3485024962119201e-05  2.3485125067306083e-05  2.3532445286118627e-05  2.3532163662947477e-05  2.3531321165167258e-05  2.3529873622921934e-05  2.3527738569442923e-05  2.3524806967248317e-05  2.3520954087322359e-05  2.3516050760770532e-05  2.3509975286753591e-05  2.3502625626583250e-05  2.3493931239762773e-05  2.3483863823780073e-05  2.3472446215023174e-05  2.3459758765240238e-05  2.3445942620029168e-05  2.3431199490427256e-05  2.3415787720049584e-05  2.3400014696306617e-05  2.3384225915781286e-05  2.3368791265728565e-05  2.3354089298004555e-05  2.3340490422603969e-05  2.3328340016758002e-05  2.3317942425724513e-05  2.3309546731358296e-05  2.3303335006553253e-05  2.3299413588385380e-05  2.3297807720230395e-05  2.3298459752986617e-05  2.3301230961672502e-05  2.3305906915654810e-05  2.3312206221827182e-05  2.3319792327095614e-05  2.3328287916907727e-05  2.3337291289118105e-05  2.3346393933828083e-05  2.3355198429227791e-05  2.3363335688770465e-05  2.3370480580499595e-05  2.3376364994621882e-05  2.3380787564538500e-05  2.3383619447127300e-05  2.3384805830474358e-05  2.3384363144315161e-05  2.3382372275992288e-05  2.3378968413137078e-05  2.3374328411068421e-05  2.3368656786391353e-05  2.3362171541870350e-05  2.3355091014143836e-05  2.3347622800928005e-05  2.3339955578461700e-05  2.3332254287915492e-05  2.3324658787995197e-05  2.3317285684021921e-05  2.3310232697034315e-05  2.3303584671227235e-05  2.3297420165733129e-05  2.3291817554737347e-05  2.3286859669267871e-05  2.3282636239503209e-05  2.3279243708850377e-05  2.3276782351173597e-05  2.3275350986517736e-05  2.3275039915335207e-05  2.3275922938967276e-05  2.3278049476328318e-05  2.3281437805978834e-05  2.3286070354255178e-05  2.3291891722810411e-05  2.3298809826327578e-05  2.3306700130934853e-05  2.3315412594836961e-05  2.3324780568905087e-05  2.3334630667127961e-05  2.3344792503219647e-05  2.3355107228915240e-05  2.3365433996720852e-05  2.3375653777307501e-05  2.3385670343025762e-05  2.3395408626781685e-05  2.3404811020387040e-05  2.3413832436354004e-05  2.3422435084989623e-05  2.3430583898196403e-05  2.3438243368999871e-05  2.3445376299306805e-05  2.3451944602386713e-05  2.3457911945496036e-05  2.3463247697762636e-05  2.3467931417689010e-05  2.3471957007872606e-05  2.3475335696961383e-05  2.3478097174420892e-05  2.3480288476468047e-05  2.3481970560193315e-05  2.3483212857881659e-05  2.3484086426806874e-05  2.3484656567757133e-05  2.3484975972417088e-05  2.3485079553425980e-05  2.3528461441645764e-05  2.3528185834389885e-05  2.3527344513289035e-05  2.3525891231171307e-05  2.3523747356452513e-05  2.3520809563992275e-05  2.3516959559937791e-05  2.3512075018967473e-05  2.3506041292723396e-05  2.3498763351090103e-05  2.3490177299374618e-05  2.3480260755135995e-05  2.3469041370648960e-05  2.3456602845815067e-05  2.3443087889038833e-05  2.3428697747154115e-05  2.3413688133243429e-05  2.3398361620603367e-05  2.3383056823169511e-05  2.3368134923166471e-05  2.3353964309085679e-05  2.3340904226992395e-05  2.3329288408566526e-05  2.3319409614921034e-05  2.3311505935070356e-05  2.3305749523928499e-05  2.3302238286400734e-05  2.3300990839672667e-05  2.3301944933120268e-05  2.3304959377178621e-05  2.3309819418638011e-05  2.3316245384363059e-05  2.3323904286391546e-05  2.3332423936723907e-05  2.3341408968390592e-05  2.3350458016188464e-05  2.3359181193842046e-05  2.3367216931190511e-05  2.3374247219196188e-05  2.3380010361875251e-05  2.3384310457350527e-05  2.3387023023609283e-05  2.3388096439514676e-05  2.3387549171819620e-05  2.3385463080793811e-05  2.3381973411299331e-05  2.3377256350355307e-05  2.3371515234640506e-05  2.3364966595192869e-05  2.3357827214339213e-05  2.3350303237093860e-05  2.3342582136147681e-05  2.3334828000821533e-05  2.3327180242514753e-05  2.3319755426109503e-05  2.3312651593990095e-05  2.3305954187877360e-05  2.3299742524712633e-05  2.3294095763425301e-05  2.3289097410359581e-05  2.3284837636962548e-05  2.3281412994647998e-05  2.3278923469352484e-05  2.3277467178457081e-05  2.3277133332645710e-05  2.3277994327752186e-05  2.3280097968671482e-05  2.3283460842208934e-05  2.3288063744164774e-05  2.3293849837511963e-05  2.3300725897071605e-05  2.3308566619261179e-05  2.3317221591735430e-05  2.3326524180296167e-05  2.3336301348967696e-05  2.3346383320825632e-05  2.3356612029710425e-05  2.3366847500922864e-05  2.3376971604444487e-05  2.3386889001179972e-05  2.3396525494575206e-05  2.3405824348434427e-05  2.3414741385906012e-05  2.3423239808552467e-05  2.3431285652577248e-05  2.3438844638359229e-05  2.3445880897037226e-05  2.3452357717918595e-05  2.3458240106306397e-05  2.3463498627522937e-05  2.3468113787021749e-05  2.3472080092061369e-05  2.3475408972178969e-05  2.3478129897699189e-05  2.3480289302449647e-05  2.3481947248366179e-05  2.3483172116862662e-05  2.3484033924915981e-05  2.3484597098314224e-05  2.3484913648747981e-05  2.3485017623351173e-05  2.3522944685883965e-05  2.3522668994586893e-05  2.3521822128423350e-05  2.3520358261705619e-05  2.3518202758290210e-05  2.3515258624870208e-05  2.3511415371215270e-05  2.3506559411053597e-05  2.3500585340074976e-05  2.3493407439020148e-05  2.3484970711951739e-05  2.3475260749684605e-05  2.3464311728953581e-05  2.3452211926179586e-05  2.3439106242050382e-05  2.3425195397217168e-05  2.3410731663258440e-05  2.3396011224019240e-05  2.3381363502002267e-05  2.3367138009655199e-05  2.3353689471521324e-05  2.3341362088178785e-05  2.3330473861800095e-05  2.3321301872463589e-05  2.3314069293821556e-05  2.3308934787984349e-05  2.3305984750389761e-05  2.3305228711738006e-05  2.3306598061336162e-05  2.3309948135860554e-05  2.3315063609347827e-05  2.3321667009608759e-05  2.3329430062724653e-05  2.3337987429500453e-05  2.3346952253782168e-05  2.3355932806653374e-05  2.3364549399149308e-05  2.3372450664975901e-05  2.3379328297166244e-05  2.3384929368658110e-05  2.3389065481944820e-05  2.3391618176883140e-05  2.3392540270953615e-05  2.3391853097476386e-05  2.3389639921676842e-05  2.3386036123176650e-05  2.3381217004158605e-05  2.3375384283196565e-05  2.3368752438493125e-05  2.3361536053309416e-05  2.3353939185932185e-05  2.3346147546669337e-05  2.3338323939656491e-05  2.3330607054106942e-05  2.3323113311759576e-05  2.3315941139943914e-05  2.3309176783644432e-05  2.3302900625955109e-05  2.3297192970979505e-05  2.3292138356867494e-05  2.3287827693433719e-05  2.3284357829020645e-05  2.3281828505698640e-05  2.3280337016985581e-05  2.3279971195629186e-05  2.3280801594112011e-05  2.3282873850177838e-05  2.3286202237979358e-05  2.3290765289178954e-05  2.3296504137807192e-05  2.3303323922265550e-05  2.3311098205260429e-05  2.3319675995641189e-05  2.3328890627305535e-05  2.3338569517784358e-05  2.3348543728517174e-05  2.3358656296524493e-05  2.3368768496845845e-05  2.3378763498508138e-05  2.3388547248325506e-05  2.3398046800890215e-05  2.3407206652837713e-05  2.3415983885543775e-05  2.3424343038482600e-05  2.3432251611085732e-05  2.3439676931332424e-05  2.3446584861878470e-05  2.3452940482345639e-05  2.3458710541386614e-05  2.3463867167197518e-05  2.3468392106183785e-05  2.3472280658710941e-05  2.3475544512258953e-05  2.3478212829843042e-05  2.3480331210573608e-05  2.3481958460353437e-05  2.3483161445954101e-05  2.3484008605199260e-05  2.3484562903655533e-05  2.3484875124226517e-05  2.3484978316534772e-05  2.3515921556810912e-05  2.3515644224566204e-05  2.3514789227018532e-05  2.3513313032133770e-05  2.3511145979745181e-05  2.3508198373151994e-05  2.3504368798654004e-05  2.3499553996341582e-05  2.3493659608806140e-05  2.3486611122382729e-05  2.3478364298623367e-05  2.3468914396392303e-05  2.3458303522650591e-05  2.3446625529885253e-05  2.3434028002115109e-05  2.3420711036879128e-05  2.3406922730169307e-05  2.3392951492188905e-05  2.3379115546302602e-05  2.3365750170148030e-05  2.3353193404250082e-05  2.3341771060213202e-05  2.3331781895449070e-05  2.3323483782969607e-05  2.3317081603795489e-05  2.3312717447074738e-05  2.3310463544915243e-05  2.3310318218009101e-05  2.3312204977146984e-05  2.3315974814641375e-05  2.3321411618487941e-05  2.3328240537754890e-05  2.3336139011337531e-05  2.3344750043192037e-05  2.3353697172857959e-05  2.3362600463084576e-05  2.3371092721262441e-05  2.3378835102457488e-05  2.3385531222000349e-05  2.3390938945160712e-05  2.3394879126972635e-05  2.3397240747811528e-05  2.3397982123830711e-05  2.3397128151815053e-05  2.3394763853470730e-05  2.3391024786201225e-05  2.3386085153790526e-05  2.3380144649009763e-05  2.3373415163607341e-05  2.3366108491401440e-05  2.3358426022248602e-05  2.3350551188417447e-05  2.3342645104807051e-05  2.3334845476826608e-05  2.3327268478152103e-05  2.3320012969998963e-05  2.3313166184354850e-05  2.3306809856027526e-05  2.3301025778387487e-05  2.3295899875029421e-05  2.3291524107860147e-05  2.3287995851335452e-05  2.3285414713361394e-05  2.3283877132395095e-05  2.3283469385642703e-05  2.3284259869226570e-05  2.3286291631544492e-05  2.3289576141044110e-05  2.3294089147207341e-05  2.3299769260013028e-05  2.3306519553571078e-05  2.3314212131847293e-05  2.3322695225850872e-05  2.3331802073347789e-05  2.3341360610653625e-05  2.3351202915177693e-05  2.3361173391810210e-05  2.3371134888476623e-05  2.3380972227565971e-05  2.3390593005270422e-05  2.3399925885681706e-05  2.3408916945633714e-05  2.3417524862420252e-05  2.3425715847173093e-05  2.3433459198828905e-05  2.3440724195186399e-05  2.3447478775802638e-05  2.3453690148445473e-05  2.3459327116775928e-05  2.3464363632734015e-05  2.3468782866638391e-05  2.3472580991861597e-05  2.3475769912114827e-05  2.3478378311729848e-05  2.3480450658851466e-05  2.3482044100109862e-05  2.3483223506762589e-05  2.3484055218362886e-05  2.3484600237192378e-05  2.3484907721644511e-05  2.3485009593126332e-05  2.3507439963486843e-05  2.3507161102431726e-05  2.3506298247130089e-05  2.3504811181904648e-05  2.3502636092859124e-05  2.3499691467227060e-05  2.3495886011327559e-05  2.3491128019272493e-05  2.3485335549389137e-05  2.3478446726509806e-05  2.3470429474267348e-05  2.3461289997159246e-05  2.3451079383829682e-05  2.3439897794426147e-05  2.3427895826072080e-05  2.3415272817570434e-05  2.3402272049151561e-05  2.3389173002547644e-05  2.3376281053930306e-05  2.3363915157650283e-05  2.3352394222568438e-05  2.3342022968778271e-05  2.3333078071533632e-05  2.3325795352109759e-05  2.3320358673917468e-05  2.3316891066805813e-05  2.3315448456574274e-05  2.3316016239776100e-05  2.3318508825766222e-05  2.3322772167146455e-05  2.3328589206727524e-05  2.3335688072504195e-05  2.3343752744703341e-05  2.3352435800559844e-05  2.3361372719536894e-05  2.3370197114898180e-05  2.3378556159375795e-05  2.3386125406041433e-05  2.3392622182744137e-05  2.3397816770464572e-05  2.3401540670390134e-05  2.3403691424067353e-05  2.3404233671247660e-05  2.3403196398372039e-05  2.3400666626069375e-05  2.3396780078600864e-05  2.3391709639680200e-05  2.3385652595179695e-05  2.3378817766159373e-05  2.3371413627054066e-05  2.3363638378458859e-05  2.3355672711531007e-05  2.3347675685959941e-05  2.3339783781981965e-05  2.3332112822431647e-05  2.3324762138033224e-05  2.3317820107935532e-05  2.3311370077486913e-05  2.3305495651722405e-05  2.3300284484968782e-05  2.3295829917345536e-05  2.3292230117308475e-05  2.3289584736249719e-05  2.3287989423386333e-05  2.3287528845419604e-05  2.3288269070884451e-05  2.3290250288646236e-05  2.3293480820224411e-05  2.3297933255797766e-05  2.3303543306403749e-05  2.3310211645852125e-05  2.3317808653277831e-05  2.3326181607905123e-05  2.3335163581148856e-05  2.3344583062286917e-05  2.3354273274306033e-05  2.3364080198900450e-05  2.3373868525140741e-05  2.3383525035831085e-05  2.3392959304226254e-05  2.3402101938377590e-05  2.3410900927692259e-05  2.3419316871210661e-05  2.3427317969285702e-05  2.3434875628391639e-05  2.3441961371468424e-05  2.3448545490617794e-05  2.3454597566050075e-05  2.3460088653341530e-05  2.3464994658875593e-05  2.3469300222426311e-05  2.3473002334921712e-05  2.3476112950403361e-05  2.3478659997777474e-05  2.3480686436914206e-05  2.3482247298543392e-05  2.3483404953999985e-05  2.3484223133608315e-05  2.3484760410894575e-05  2.3485063964586479e-05  2.3485164409178694e-05  2.3497571548458974e-05  2.3497292143741313e-05  2.3496423885366393e-05  2.3494930382229994e-05  2.3492754225098237e-05  2.3489822693714282e-05  2.3486055314096479e-05  2.3481372739220048e-05  2.3475706333005266e-05  2.3469007788908212e-05  2.3461258103307310e-05  2.3452475249830370e-05  2.3442719965020822e-05  2.3432099158339023e-05  2.3420766597927403e-05  2.3408920692085647e-05  2.3396799375606389e-05  2.3384672306953424e-05  2.3372830770631381e-05  2.3361575841364828e-05  2.3351205486092213e-05  2.3342001343409299e-05  2.3334215922115878e-05  2.3328060904298688e-05  2.3323697136651239e-05  2.3321226765869387e-05  2.3320687840745703e-05  2.3322051581064203e-05  2.3325222408515285e-05  2.3330040744906566e-05  2.3336288499047200e-05  2.3343697076209435e-05  2.3351957647279991e-05  2.3360733308658669e-05  2.3369672653828711e-05  2.3378424171844860e-05  2.3386650797144053e-05  2.3394043870535365e-05  2.3400335744940093e-05  2.3405310292872807e-05  2.3408810654863068e-05  2.3410743713380462e-05  2.3411080982712310e-05  2.3409855860493274e-05  2.3407157471231192e-05  2.3403121618707790e-05  2.3397919620378495e-05  2.3391745990209178e-05  2.3384806038636141e-05  2.3377304450787948e-05  2.3369435781262055e-05  2.3361377575260742e-05  2.3353286516104792e-05  2.3345297644245430e-05  2.3337526336134047e-05  2.3330072417071450e-05  2.3323025549820293e-05  2.3316470919236889e-05  2.3310494236944247e-05  2.3305185217281130e-05  2.3300638908686659e-05  2.3296954572376773e-05  2.3294232142964364e-05  2.3292566640624935e-05  2.3292041190791046e-05  2.3292719511285045e-05  2.3294638824430720e-05  2.3297804131042380e-05  2.3302184645027964e-05  2.3307712945519084e-05  2.3314287084739147e-05  2.3321775532528492e-05  2.3330024488806435e-05  2.3338866801490759e-05  2.3348131532112443e-05  2.3357653143975133e-05  2.3367279358879483e-05  2.3376876927828890e-05  2.3386334858950684e-05  2.3395564997683129e-05  2.3404500208213061e-05  2.3413090710005633e-05  2.3421299336311910e-05  2.3429096574703830e-05  2.3436456213331832e-05  2.3443352260389619e-05  2.3449757555151075e-05  2.3455644186686451e-05  2.3460985527391580e-05  2.3465759418926212e-05  2.3469951857254785e-05  2.3473560437971744e-05  2.3476596853720456e-05  2.3479087875835118e-05  2.3481074480016041e-05  2.3482609056203213e-05  2.3483750934002181e-05  2.3484560714153708e-05  2.3485094085889398e-05  2.3485395902585756e-05  2.3485495272030567e-05  2.3486415066660480e-05  2.3486136664288683e-05  2.3485267192017199e-05  2.3483774274483919e-05  2.3481607142324058e-05  2.3478702128845131e-05  2.3474989877870955e-05  2.3470403745505948e-05  2.3464888786963949e-05  2.3458410672479985e-05  2.3450963871847403e-05  2.3442578484013326e-05  2.3433325164920818e-05  2.3423317720513628e-05  2.3412713077418875e-05  2.3401708513510717e-05  2.3390536213693671e-05  2.3379455399556096e-05  2.3368742449915906e-05  2.3358679567229372e-05  2.3349542638673920e-05  2.3341588981156411e