<?xml version="1.0"?>
<VTKFile type="UnstructuredGrid"  version="0.1"  >
<UnstructuredGrid>
<Piece  NumberOfPoints="10201" NumberOfCells="20000">
<Points>
<DataArray  type="Float64"  NumberOfComponents="3"  format="ascii">0 0 0  0.25 0 0  0.5 0 0  0.75 0 0  1 0 0  1.25 0 0  1.5 0 0  1.75 0 0  2 0 0  2.25 0 0  2.5 0 0  2.75 0 0  3 0 0  3.25 0 0  3.5 0 0  3.75 0 0  4 0 0  4.25 0 0  4.5 0 0  4.75 0 0  5 0 0  5.25 0 0  5.5 0 0  5.75 0 0  6 0 0  6.25 0 0  6.5 0 0  6.75 0 0  7 0 0  7.25 0 0  7.5 0 0  7.75 0 0  8 0 0  8.25 0 0  8.5 0 0  8.75 0 0  9 0 0  9.25 0 0  9.5 0 0  9.75 0 0  10 0 0  10.25 0 0  10.5 0 0  10.75 0 0  11 0 0  11.25 0 0  11.5 0 0  11.75 0 0  12 0 0  12.25 0 0  12.5 0 0  12.75 0 0  13 0 0  13.25 0 0  13.5 0 0  13.75 0 0  14 0 0  14.25 0 0  14.5 0 0  14.75 0 0  15 0 0  15.25 0 0  15.5 0 0  15.75 0 0  16 0 0  16.25 0 0  16.5 0 0  16.75 0 0  17 0 0  17.25 0 0  17.5 0 0  17.75 0 0  18 0 0  18.25 0 0  18.5 0 0  18.75 0 0  19 0 0  19.25 0 0  19.5 0 0  19.75 0 0  20 0 0  20.25 0 0  20.5 0 0  20.75 0 0  21 0 0  21.25 0 0  21.5 0 0  21.75 0 0  22 0 0  22.25 0 0  22.5 0 0  22.75 0 0  23 0 0  23.25 0 0  23.5 0 0  23.75 0 0  24 0 0  24.25 0 0  24.5 0 0  24.75 0 0  25 0 0  0 0.25 0  0.25 0.25 0  0.5 0.25 0  0.75 0.25 0  1 0.25 0  1.25 0.25 0  1.5 0.25 0  1.75 0.25 0  2 0.25 0  2.25 0.25 0  2.5 0.25 0  2.75 0.25 0  3 0.25 0  3.25 0.25 0  3.5 0.25 0  3.75 0.25 0  4 0.25 0  4.25 0.25 0  4.5 0.25 0  4.75 0.25 0  5 0.25 0  5.25 0.25 0  5.5 0.25 0  5.75 0.25 0  6 0.25 0  6.25 0.25 0  6.5 0.25 0  6.75 0.25 0  7 0.25 0  7.25 0.25 0  7.5 0.25 0  7.75 0.25 0  8 0.25 0  8.25 0.25 0  8.5 0.25 0  8.75 0.25 0  9 0.25 0  9.25 0.25 0  9.5 0.25 0  9.75 0.25 0  10 0.25 0  10.25 0.25 0  10.5 0.25 0  10.75 0.25 0  11 0.25 0  11.25 0.25 0  11.5 0.25 0  11.75 0.25 0  12 0.25 0  12.25 0.25 0  12.5 0.25 0  12.75 0.25 0  13 0.25 0  13.25 0.25 0  13.5 0.25 0  13.75 0.25 0  14 0.25 0  14.25 0.25 0  14.5 0.25 0  14.75 0.25 0  15 0.25 0  15.25 0.25 0  15.5 0.25 0  15.75 0.25 0  16 0.25 0  16.25 0.25 0  16.5 0.25 0  16.75 0.25 0  17 0.25 0  17.25 0.25 0  17.5 0.25 0  17.75 0.25 0  18 0.25 0  18.25 0.25 0  18.5 0.25 0  18.75 0.25 0  19 0.25 0  19.25 0.25 0  19.5 0.25 0  19.75 0.25 0  20 0.25 0  20.25 0.25 0  20.5 0.25 0  20.75 0.25 0  21 0.25 0  21.25 0.25 0  21.5 0.25 0  21.75 0.25 0  22 0.25 0  22.25 0.25 0  22.5 0.25 0  22.75 0.25 0  23 0.25 0  23.25 0.25 0  23.5 0.25 0  23.75 0.25 0  24 0.25 0  24.25 0.25 0  24.5 0.25 0  24.75 0.25 0  25 0.25 0  0 0.5 0  0.25 0.5 0  0.5 0.5 0  0.75 0.5 0  1 0.5 0  1.25 0.5 0  1.5 0.5 0  1.75 0.5 0  2 0.5 0  2.25 0.5 0  2.5 0.5 0  2.75 0.5 0  3 0.5 0  3.25 0.5 0  3.5 0.5 0  3.75 0.5 0  4 0.5 0  4.25 0.5 0  4.5 0.5 0  4.75 0.5 0  5 0.5 0  5.25 0.5 0  5.5 0.5 0  5.75 0.5 0  6 0.5 0  6.25 0.5 0  6.5 0.5 0  6.75 0.5 0  7 0.5 0  7.25 0.5 0  7.5 0.5 0  7.75 0.5 0  8 0.5 0  8.25 0.5 0  8.5 0.5 0  8.75 0.5 0  9 0.5 0  9.25 0.5 0  9.5 0.5 0  9.75 0.5 0  10 0.5 0  10.25 0.5 0  10.5 0.5 0  10.75 0.5 0  11 0.5 0  11.25 0.5 0  11.5 0.5 0  11.75 0.5 0  12 0.5 0  12.25 0.5 0  12.5 0.5 0  12.75 0.5 0  13 0.5 0  13.25 0.5 0  13.5 0.5 0  13.75 0.5 0  14 0.5 0  14.25 0.5 0  14.5 0.5 0  14.75 0.5 0  15 0.5 0  15.25 0.5 0  15.5 0.5 0  15.75 0.5 0  16 0.5 0  16.25 0.5 0  16.5 0.5 0  16.75 0.5 0  17 0.5 0  17.25 0.5 0  17.5 0.5 0  17.75 0.5 0  18 0.5 0  18.25 0.5 0  18.5 0.5 0  18.75 0.5 0  19 0.5 0  19.25 0.5 0  19.5 0.5 0  19.75 0.5 0  20 0.5 0  20.25 0.5 0  20.5 0.5 0  20.75 0.5 0  21 0.5 0  21.25 0.5 0  21.5 0.5 0  21.75 0.5 0  22 0.5 0  22.25 0.5 0  22.5 0.5 0  22.75 0.5 0  23 0.5 0  23.25 0.5 0  23.5 0.5 0  23.75 0.5 0  24 0.5 0  24.25 0.5 0  24.5 0.5 0  24.75 0.5 0  25 0.5 0  0 0.75 0  0.25 0.75 0  0.5 0.75 0  0.75 0.75 0  1 0.75 0  1.25 0.75 0  1.5 0.75 0  1.75 0.75 0  2 0.75 0  2.25 0.75 0  2.5 0.75 0  2.75 0.75 0  3 0.75 0  3.25 0.75 0  3.5 0.75 0  3.75 0.75 0  4 0.75 0  4.25 0.75 0  4.5 0.75 0  4.75 0.75 0  5 0.75 0  5.25 0.75 0  5.5 0.75 0  5.75 0.75 0  6 0.75 0  6.25 0.75 0  6.5 0.75 0  6.75 0.75 0  7 0.75 0  7.25 0.75 0  7.5 0.75 0  7.75 0.75 0  8 0.75 0  8.25 0.75 0  8.5 0.75 0  8.75 0.75 0  9 0.75 0  9.25 0.75 0  9.5 0.75 0  9.75 0.75 0  10 0.75 0  10.25 0.75 0  10.5 0.75 0  10.75 0.75 0  11 0.75 0  11.25 0.75 0  11.5 0.75 0  11.75 0.75 0  12 0.75 0  12.25 0.75 0  12.5 0.75 0  12.75 0.75 0  13 0.75 0  13.25 0.75 0  13.5 0.75 0  13.75 0.75 0  14 0.75 0  14.25 0.75 0  14.5 0.75 0  14.75 0.75 0  15 0.75 0  15.25 0.75 0  15.5 0.75 0  15.75 0.75 0  16 0.75 0  16.25 0.75 0  16.5 0.75 0  16.75 0.75 0  17 0.75 0  17.25 0.75 0  17.5 0.75 0  17.75 0.75 0  18 0.75 0  18.25 0.75 0  18.5 0.75 0  18.75 0.75 0  19 0.75 0  19.25 0.75 0  19.5 0.75 0  19.75 0.75 0  20 0.75 0  20.25 0.75 0  20.5 0.75 0  20.75 0.75 0  21 0.75 0  21.25 0.75 0  21.5 0.75 0  21.75 0.75 0  22 0.75 0  22.25 0.75 0  22.5 0.75 0  22.75 0.75 0  23 0.75 0  23.25 0.75 0  23.5 0.75 0  23.75 0.75 0  24 0.75 0  24.25 0.75 0  24.5 0.75 0  24.75 0.75 0  25 0.75 0  0 1 0  0.25 1 0  0.5 1 0  0.75 1 0  1 1 0  1.25 1 0  1.5 1 0  1.75 1 0  2 1 0  2.25 1 0  2.5 1 0  2.75 1 0  3 1 0  3.25 1 0  3.5 1 0  3.75 1 0  4 1 0  4.25 1 0  4.5 1 0  4.75 1 0  5 1 0  5.25 1 0  5.5 1 0  5.75 1 0  6 1 0  6.25 1 0  6.5 1 0  6.75 1 0  7 1 0  7.25 1 0  7.5 1 0  7.75 1 0  8 1 0  8.25 1 0  8.5 1 0  8.75 1 0  9 1 0  9.25 1 0  9.5 1 0  9.75 1 0  10 1 0  10.25 1 0  10.5 1 0  10.75 1 0  11 1 0  11.25 1 0  11.5 1 0  11.75 1 0  12 1 0  12.25 1 0  12.5 1 0  12.75 1 0  13 1 0  13.25 1 0  13.5 1 0  13.75 1 0  14 1 0  14.25 1 0  14.5 1 0  14.75 1 0  15 1 0  15.25 1 0  15.5 1 0  15.75 1 0  16 1 0  16.25 1 0  16.5 1 0  16.75 1 0  17 1 0  17.25 1 0  17.5 1 0  17.75 1 0  18 1 0  18.25 1 0  18.5 1 0  18.75 1 0  19 1 0  19.25 1 0  19.5 1 0  19.75 1 0  20 1 0  20.25 1 0  20.5 1 0  20.75 1 0  21 1 0  21.25 1 0  21.5 1 0  21.75 1 0  22 1 0  22.25 1 0  22.5 1 0  22.75 1 0  23 1 0  23.25 1 0  23.5 1 0  23.75 1 0  24 1 0  24.25 1 0  24.5 1 0  24.75 1 0  25 1 0  0 1.25 0  0.25 1.25 0  0.5 1.25 0  0.75 1.25 0  1 1.25 0  1.25 1.25 0  1.5 1.25 0  1.75 1.25 0  2 1.25 0  2.25 1.25 0  2.5 1.25 0  2.75 1.25 0  3 1.25 0  3.25 1.25 0  3.5 1.25 0  3.75 1.25 0  4 1.25 0  4.25 1.25 0  4.5 1.25 0  4.75 1.25 0  5 1.25 0  5.25 1.25 0  5.5 1.25 0  5.75 1.25 0  6 1.25 0  6.25 1.25 0  6.5 1.25 0  6.75 1.25 0  7 1.25 0  7.25 1.25 0  7.5 1.25 0  7.75 1.25 0  8 1.25 0  8.25 1.25 0  8.5 1.25 0  8.75 1.25 0  9 1.25 0  9.25 1.25 0  9.5 1.25 0  9.75 1.25 0  10 1.25 0  10.25 1.25 0  10.5 1.25 0  10.75 1.25 0  11 1.25 0  11.25 1.25 0  11.5 1.25 0  11.75 1.25 0  12 1.25 0  12.25 1.25 0  12.5 1.25 0  12.75 1.25 0  13 1.25 0  13.25 1.25 0  13.5 1.25 0  13.75 1.25 0  14 1.25 0  14.25 1.25 0  14.5 1.25 0  14.75 1.25 0  15 1.25 0  15.25 1.25 0  15.5 1.25 0  15.75 1.25 0  16 1.25 0  16.25 1.25 0  16.5 1.25 0  16.75 1.25 0  17 1.25 0  17.25 1.25 0  17.5 1.25 0  17.75 1.25 0  18 1.25 0  18.25 1.25 0  18.5 1.25 0  18.75 1.25 0  19 1.25 0  19.25 1.25 0  19.5 1.25 0  19.75 1.25 0  20 1.25 0  20.25 1.25 0  20.5 1.25 0  20.75 1.25 0  21 1.25 0  21.25 1.25 0  21.5 1.25 0  21.75 1.25 0  22 1.25 0  22.25 1.25 0  22.5 1.25 0  22.75 1.25 0  23 1.25 0  23.25 1.25 0  23.5 1.25 0  23.75 1.25 0  24 1.25 0  24.25 1.25 0  24.5 1.25 0  24.75 1.25 0  25 1.25 0  0 1.5 0  0.25 1.5 0  0.5 1.5 0  0.75 1.5 0  1 1.5 0  1.25 1.5 0  1.5 1.5 0  1.75 1.5 0  2 1.5 0  2.25 1.5 0  2.5 1.5 0  2.75 1.5 0  3 1.5 0  3.25 1.5 0  3.5 1.5 0  3.75 1.5 0  4 1.5 0  4.25 1.5 0  4.5 1.5 0  4.75 1.5 0  5 1.5 0  5.25 1.5 0  5.5 1.5 0  5.75 1.5 0  6 1.5 0  6.25 1.5 0  6.5 1.5 0  6.75 1.5 0  7 1.5 0  7.25 1.5 0  7.5 1.5 0  7.75 1.5 0  8 1.5 0  8.25 1.5 0  8.5 1.5 0  8.75 1.5 0  9 1.5 0  9.25 1.5 0  9.5 1.5 0  9.75 1.5 0  10 1.5 0  10.25 1.5 0  10.5 1.5 0  10.75 1.5 0  11 1.5 0  11.25 1.5 0  11.5 1.5 0  11.75 1.5 0  12 1.5 0  12.25 1.5 0  12.5 1.5 0  12.75 1.5 0  13 1.5 0  13.25 1.5 0  13.5 1.5 0  13.75 1.5 0  14 1.5 0  14.25 1.5 0  14.5 1.5 0  14.75 1.5 0  15 1.5 0  15.25 1.5 0  15.5 1.5 0  15.75 1.5 0  16 1.5 0  16.25 1.5 0  16.5 1.5 0  16.75 1.5 0  17 1.5 0  17.25 1.5 0  17.5 1.5 0  17.75 1.5 0  18 1.5 0  18.25 1.5 0  18.5 1.5 0  18.75 1.5 0  19 1.5 0  19.25 1.5 0  19.5 1.5 0  19.75 1.5 0  20 1.5 0  20.25 1.5 0  20.5 1.5 0  20.75 1.5 0  21 1.5 0  21.25 1.5 0  21.5 1.5 0  21.75 1.5 0  22 1.5 0  22.25 1.5 0  22.5 1.5 0  22.75 1.5 0  23 1.5 0  23.25 1.5 0  23.5 1.5 0  23.75 1.5 0  24 1.5 0  24.25 1.5 0  24.5 1.5 0  24.75 1.5 0  25 1.5 0  0 1.75 0  0.25 1.75 0  0.5 1.75 0  0.75 1.75 0  1 1.75 0  1.25 1.75 0  1.5 1.75 0  1.75 1.75 0  2 1.75 0  2.25 1.75 0  2.5 1.75 0  2.75 1.75 0  3 1.75 0  3.25 1.75 0  3.5 1.75 0  3.75 1.75 0  4 1.75 0  4.25 1.75 0  4.5 1.75 0  4.75 1.75 0  5 1.75 0  5.25 1.75 0  5.5 1.75 0  5.75 1.75 0  6 1.75 0  6.25 1.75 0  6.5 1.75 0  6.75 1.75 0  7 1.75 0  7.25 1.75 0  7.5 1.75 0  7.75 1.75 0  8 1.75 0  8.25 1.75 0  8.5 1.75 0  8.75 1.75 0  9 1.75 0  9.25 1.75 0  9.5 1.75 0  9.75 1.75 0  10 1.75 0  10.25 1.75 0  10.5 1.75 0  10.75 1.75 0  11 1.75 0  11.25 1.75 0  11.5 1.75 0  11.75 1.75 0  12 1.75 0  12.25 1.75 0  12.5 1.75 0  12.75 1.75 0  13 1.75 0  13.25 1.75 0  13.5 1.75 0  13.75 1.75 0  14 1.75 0  14.25 1.75 0  14.5 1.75 0  14.75 1.75 0  15 1.75 0  15.25 1.75 0  15.5 1.75 0  15.75 1.75 0  16 1.75 0  16.25 1.75 0  16.5 1.75 0  16.75 1.75 0  17 1.75 0  17.25 1.75 0  17.5 1.75 0  17.75 1.75 0  18 1.75 0  18.25 1.75 0  18.5 1.75 0  18.75 1.75 0  19 1.75 0  19.25 1.75 0  19.5 1.75 0  19.75 1.75 0  20 1.75 0  20.25 1.75 0  20.5 1.75 0  20.75 1.75 0  21 1.75 0  21.25 1.75 0  21.5 1.75 0  21.75 1.75 0  22 1.75 0  22.25 1.75 0  22.5 1.75 0  22.75 1.75 0  23 1.75 0  23.25 1.75 0  23.5 1.75 0  23.75 1.75 0  24 1.75 0  24.25 1.75 0  24.5 1.75 0  24.75 1.75 0  25 1.75 0  0 2 0  0.25 2 0  0.5 2 0  0.75 2 0  1 2 0  1.25 2 0  1.5 2 0  1.75 2 0  2 2 0  2.25 2 0  2.5 2 0  2.75 2 0  3 2 0  3.25 2 0  3.5 2 0  3.75 2 0  4 2 0  4.25 2 0  4.5 2 0  4.75 2 0  5 2 0  5.25 2 0  5.5 2 0  5.75 2 0  6 2 0  6.25 2 0  6.5 2 0  6.75 2 0  7 2 0  7.25 2 0  7.5 2 0  7.75 2 0  8 2 0  8.25 2 0  8.5 2 0  8.75 2 0  9 2 0  9.25 2 0  9.5 2 0  9.75 2 0  10 2 0  10.25 2 0  10.5 2 0  10.75 2 0  11 2 0  11.25 2 0 
[...]
<PointData  Scalars="f_26"> 
<DataArray  type="Float64"  Name="f_26"  format="ascii">1.5326877038148732e-05  1.5334951562445798e-05  1.5353781739272589e-05  1.5382038317191643e-05  1.5418135942123593e-05  1.5461586850955668e-05  1.5512703682217550e-05  1.5571693134501398e-05  1.5638677495979926e-05  1.5714489644631050e-05  1.5800411644523709e-05  1.5896256130180428e-05  1.6000106834005610e-05  1.6108841795448047e-05  1.6219182779196646e-05  1.6329920349124384e-05  1.6442638587757986e-05  1.6560017695628333e-05  1.6683635982231582e-05  1.6813763811410682e-05  1.6951917383442467e-05  1.7101752906461011e-05  1.7266416765921165e-05  1.7445492847744301e-05  1.7634602946300517e-05  1.7828418325287814e-05  1.8023250813956748e-05  1.8218756911145632e-05  1.8417248523338210e-05  1.8620229565834269e-05  1.8826737072679400e-05  1.9032886416762935e-05  1.9232444684632865e-05  1.9420147775946435e-05  1.9593690628897082e-05  1.9753460699931646e-05  1.9900707270197533e-05  2.0036442020030681e-05  2.0161410138079391e-05  2.0275612771376634e-05  2.0378333270654523e-05  2.0468408016917244e-05  2.0545240581092629e-05  2.0609845421406694e-05  2.0663546825160146e-05  2.0706389974111524e-05  2.0737437319905706e-05  2.0756665018371428e-05  2.0766480680456305e-05  2.0770194567054511e-05  2.0768826632406370e-05  2.0761094067921113e-05  2.0745024491476601e-05  2.0718685172552650e-05  2.0680874735169219e-05  2.0632452693398912e-05  2.0575754012017010e-05  2.0511538291240819e-05  2.0438011219670561e-05  2.0353067880276236e-05  2.0256277545697708e-05  2.0147836110988183e-05  2.0027506096379834e-05  1.9894313972676765e-05  1.9748330316147903e-05  1.9591724330254734e-05  1.9426854023662519e-05  1.9255766175229331e-05  1.9081174365027265e-05  1.8907292299650349e-05  1.8738892374844865e-05  1.8579144380109911e-05  1.8428156279031322e-05  1.8283176949736857e-05  1.8141159410557242e-05  1.8000518903856831e-05  1.7861473397993600e-05  1.7724607568719756e-05  1.7588642801395420e-05  1.7449745526539932e-05  1.7304970792947450e-05  1.7155579252470419e-05  1.7006240568459867e-05  1.6860881615914327e-05  1.6721742094903602e-05  1.6591930779117325e-05  1.6475114765931060e-05  1.6371589266621592e-05  1.6278683286769707e-05  1.6194906422402154e-05  1.6120332585005761e-05  1.6053187474529411e-05  1.5989562158237325e-05  1.5926777271226823e-05  1.5865551922493092e-05  1.5808878339625419e-05  1.5759864102510143e-05  1.5720383293287373e-05  1.5691100274101023e-05  1.5673144346082712e-05  1.5668632204014894e-05  1.5332593869376674e-05  1.5339457491273373e-05  1.5358168124011875e-05  1.5386700448460326e-05  1.5423193801426084e-05  1.5466934996904198e-05  1.5518097653249385e-05  1.5577080041897657e-05  1.5644173794640369e-05  1.5719956436975097e-05  1.5805516861949049e-05  1.5900911552585534e-05  1.6004405806253175e-05  1.6112913794188051e-05  1.6223236220453416e-05  1.6334193148667971e-05  1.6447419807357795e-05  1.6565556447786254e-05  1.6690143845992905e-05  1.6821291884339581e-05  1.6960035291774535e-05  1.7109891610890017e-05  1.7274512652328524e-05  1.7454203671267273e-05  1.7644839959470246e-05  1.7840596080616065e-05  1.8037135977055997e-05  1.8233477939610834e-05  1.8431802821450381e-05  1.8634144425257050e-05  1.8839846363988785e-05  1.9045233137299781e-05  1.9244238981922739e-05  1.9431551790526788e-05  1.9604843532608913e-05  1.9764481757479879e-05  1.9911652117469148e-05  2.0047232050799535e-05  2.0171989302593368e-05  2.0286185164232612e-05  2.0389131794414084e-05  2.0479741713715713e-05  2.0557417751602642e-05  2.0622991998677870e-05  2.0677471011694120e-05  2.0720753761408113e-05  2.0752028606993463e-05  2.0771523897933558e-05  2.0781615798642381e-05  2.0785559801455386e-05  2.0784464813131221e-05  2.0776915315217818e-05  2.0760787578684396e-05  2.0734212526697814e-05  2.0696073859643766e-05  2.0647090365292466e-05  2.0589480878976296e-05  2.0524174272748768e-05  2.0449508201294815e-05  2.0363373295571651e-05  2.0265500259264464e-05  2.0156362675340343e-05  2.0035908203236483e-05  1.9903267282976072e-05  1.9758080365504900e-05  1.9602115906764583e-05  1.9437816603990673e-05  1.9267377813264042e-05  1.9093402434040582e-05  1.8919746382882582e-05  1.8751074428905991e-05  1.8590816216578991e-05  1.8439305991930959e-05  1.8293841899049230e-05  1.8151422938604165e-05  1.8010526213361603e-05  1.7871156194948874e-05  1.7733596916809951e-05  1.7596633849584136e-05  1.7456832733475221e-05  1.7311436901621361e-05  1.7161612803299604e-05  1.7011924340940290e-05  1.6866372145703729e-05  1.6727077334261618e-05  1.6596859435345893e-05  1.6479415863236550e-05  1.6375582137480641e-05  1.6282828924300895e-05  1.6199271127138070e-05  1.6124705761982781e-05  1.6057491892254792e-05  1.5993866124920158e-05  1.5931196399065031e-05  1.5870137317863883e-05  1.5813654544809357e-05  1.5764847903503953e-05  1.5725553279343259e-05  1.5696274596601646e-05  1.5677930043031123e-05  1.5671960781266110e-05  1.5345678067269958e-05  1.5352355140167191e-05  1.5371188633551249e-05  1.5400206874422108e-05  1.5437468274444907e-05  1.5482007323203084e-05  1.5533627415795362e-05  1.5592799448204863e-05  1.5660191468443208e-05  1.5736127601208296e-05  1.5821193649624778e-05  1.5915604782897068e-05  1.6018108748796699e-05  1.6125813252247485e-05  1.6235726985857536e-05  1.6346987451173335e-05  1.6461470419362481e-05  1.6581773350543302e-05  1.6709077472860306e-05  1.6843044565063348e-05  1.6983942170863513e-05  1.7134894368850249e-05  1.7300251305723695e-05  1.7481655895472091e-05  1.7675803113609940e-05  1.7876264982085427e-05  1.8077192401205170e-05  1.8276236365345756e-05  1.8474922015883099e-05  1.8675984767286484e-05  1.8879698002209932e-05  1.9082883670689443e-05  1.9279936825156604e-05  1.9465785319007033e-05  1.9638138806172987e-05  1.9797362022357632e-05  1.9944325698545347e-05  2.0079596423144015e-05  2.0203954139849177e-05  2.0318195085659715e-05  2.0421919973066016e-05  2.0513927182941414e-05  2.0593663729965301e-05  2.0661763610423961e-05  2.0718633667021670e-05  2.0763632704328305e-05  2.0795906816258375e-05  2.0816193009576226e-05  2.0827202485688710e-05  2.0831973245501142e-05  2.0831465635568891e-05  2.0824141316009207e-05  2.0807664223082602e-05  2.0780257506278627e-05  2.0740945311513774e-05  2.0690399625250961e-05  2.0630707583710778e-05  2.0562874924329191e-05  2.0485368626911979e-05  2.0396115549995186e-05  2.0295313924240696e-05  2.0184294814892868e-05  2.0063303737527166e-05  1.9931602109170353e-05  1.9788229619139696e-05  1.9633976185490163e-05  1.9471050907971290e-05  1.9301828628228957e-05  1.9128962135094629e-05  1.8955884761404610e-05  1.8786820473299340e-05  1.8625370186937533e-05  1.8472384829919066e-05  1.8325455733664929e-05  1.8181727473504367e-05  1.8039873639939364e-05  1.7899630866176122e-05  1.7760505370750052e-05  1.7621055575846943e-05  1.7478542697336202e-05  1.7331019291020394e-05  1.7179891744204133e-05  1.7029506776355617e-05  1.6883640000176882e-05  1.6744008222726120e-05  1.6612990086370036e-05  1.6494296942304287e-05  1.6389448909663655e-05  1.6296459211210989e-05  1.6213081929848941e-05  1.6138457990165890e-05  1.6070899306563998e-05  1.6006900895689180e-05  1.5944177263864444e-05  1.5883559729802069e-05  1.5827871752664568e-05  1.5779955894467156e-05  1.5741375899341450e-05  1.5712340258234817e-05  1.5693698275209766e-05  1.5687260023703660e-05  1.5367648405050549e-05  1.5374216880861315e-05  1.5392957080113578e-05  1.5422082745525400e-05  1.5459838137011206e-05  1.5505254917902943e-05  1.5557877861003366e-05  1.5617979998489809e-05  1.5686175170189337e-05  1.5762551084320825e-05  1.5847218473370016e-05  1.5940508995214622e-05  1.6041578767068929e-05  1.6147984048890543e-05  1.6257331081287308e-05  1.6369240769025572e-05  1.6485627900895871e-05  1.6608952949888800e-05  1.6740083812037655e-05  1.6878209428509813e-05  1.7023016226752414e-05  1.7177061790683198e-05  1.7344927024925023e-05  1.7529352601721046e-05  1.7728032824499273e-05  1.7934285343009700e-05  1.8140929119366655e-05  1.8343968722106990e-05  1.8543879286167377e-05  1.8743630235048587e-05  1.8944504448721706e-05  1.9144282940196010e-05  1.9338192286515412e-05  1.9521807799760891e-05  1.9693020864544087e-05  1.9851842772135855e-05  1.9998709535515483e-05  2.0133835018661382e-05  2.0258058283142694e-05  2.0372572665883736e-05  2.0477473434547995e-05  2.0571554548939230e-05  2.0654032269154487e-05  2.0725246972111750e-05  2.0785156279460078e-05  2.0832931616871940e-05  2.0867578566930142e-05  2.0889817577912498e-05  2.0902496488485609e-05  2.0908461024872467e-05  2.0908377775208770e-05  2.0900761263942251e-05  2.0883466518935512e-05  2.0854827198856986e-05  2.0813999115595164e-05  2.0761496048117099e-05  2.0699177956006620e-05  2.0628194253147083e-05  2.0547157360488160e-05  2.0454020631486948e-05  2.0349501247832287e-05  2.0235976993770823e-05  2.0114233446135270e-05  1.9983359706016887e-05  1.9841793427421869e-05  1.9689315753352193e-05  1.9527637032738281e-05  1.9359355200038438e-05  1.9187322056897126e-05  1.9014718777046323e-05  1.8845204358275087e-05  1.8682003305498150e-05  1.8526435220381671e-05  1.8376998891203115e-05  1.8231233685669088e-05  1.8087737646903898e-05  1.7945744789723390e-05  1.7803961198665497e-05  1.7660720990375201e-05  1.7514361029645499e-05  1.7364125261497455e-05  1.7211678742662686e-05  1.7060802970337224e-05  1.6914826310484925e-05  1.6775115461677177e-05  1.6643501565006057e-05  1.6523429540904911e-05  1.6416912598636786e-05  1.6322749420543889e-05  1.6238624850985819e-05  1.6162854069934132e-05  1.6093713568782191e-05  1.6028397216175340e-05  1.5965214175580683e-05  1.5905261929471206e-05  1.5851116353553733e-05  1.5804909510306285e-05  1.5767653816383168e-05  1.5739337033302135e-05  1.5720830986383700e-05  1.5714246691001179e-05  1.5399676954093631e-05  1.5406006456678946e-05  1.5424218138800771e-05  1.5452695070613889e-05  1.5490099425583708e-05  1.5535811977294039e-05  1.5589542318850271e-05  1.5651290931799837e-05  1.5721032811061181e-05  1.5798322461501095e-05  1.5882954636745926e-05  1.5975342446829711e-05  1.6074933087172736e-05  1.6179817436054130e-05  1.6288674350818063e-05  1.6401839235363720e-05  1.6520943013420679e-05  1.6647952893075902e-05  1.6783579398634985e-05  1.6926791883735475e-05  1.7077006446905427e-05  1.7236340131024375e-05  1.7409052492010185e-05  1.7598196295751314e-05  1.7802048820783150e-05  1.8013942260002989e-05  1.8226039585162881e-05  1.8433206235180773e-05  1.8634767326905325e-05  1.8833390415437034e-05  1.9031136795270039e-05  1.9226992052017143e-05  1.9417259429514469e-05  1.9598360028859181e-05  1.9768622141594533e-05  1.9927504622649603e-05  2.0074769586635864e-05  2.0210391708785875e-05  2.0335160143639731e-05  2.0450486238865031e-05  2.0556812899845843e-05  2.0653040394966872e-05  2.0738066776652350e-05  2.0811936586700537e-05  2.0874489569824412e-05  2.0925128708743713e-05  2.0963054810900131e-05  2.0988483147159751e-05  2.1003588223729479e-05  2.1010903601559188e-05  2.1011010703802227e-05  2.1002635250890417e-05  2.0984205699694306e-05  2.0954527557761111e-05  2.0912794298185455e-05  2.0859017159313414e-05  2.0794504351606236e-05  2.0720511094879656e-05  2.0636020056827835e-05  2.0539191431180790e-05  2.0431133486018650e-05  2.0315144503357625e-05  2.0192574545558545e-05  2.0062098522862112e-05  1.9921358123867385e-05  1.9769482442486351e-05  1.9607912449122861e-05  1.9439595264432409e-05  1.9267778376719925e-05  1.9095417423438865e-05  1.8925374906831694e-05  1.8760264919046955e-05  1.8601493529835401e-05  1.8448609424403859e-05  1.8299784161657634e-05  1.8153473904212195e-05  1.8008378517806211e-05  1.7862562899417087e-05  1.7714436604087418e-05  1.7563641655203845e-05  1.7410724489196633e-05  1.7257408869961313e-05  1.7106618440265878e-05  1.6960971610908662e-05  1.6821590702949293e-05  1.6689945103173493e-05  1.6568961536321401e-05  1.6460579562234631e-05  1.6364129180112063e-05  1.6277604692409680e-05  1.6198911548316782e-05  1.6126433070801487e-05  1.6058447993134385e-05  1.5994033725603612e-05  1.5934489085573321e-05  1.5882050270256356e-05  1.5838023179252930e-05  1.5802662251644415e-05  1.5775754870401746e-05  1.5758083243443159e-05  1.5751717219894060e-05  1.5441690693140394e-05  1.5447738402268647e-05  1.5465202642466577e-05  1.5492538843531250e-05  1.5528807638723868e-05  1.5573951352584176e-05  1.5628222417941534e-05  1.5691578932543868e-05  1.5763276969781587e-05  1.5842113563493345e-05  1.5927453820471828e-05  1.6019577274823189e-05  1.6118171889882543e-05  1.6221919955367733e-05  1.6330710708049664e-05  1.6445928491383130e-05  1.6568928761368141e-05  1.6700758218035862e-05  1.6841805670053062e-05  1.6991077584846510e-05  1.7147921279045921e-05  1.7314205118000998e-05  1.7493509429731946e-05  1.7688415929052678e-05  1.7897370271694597e-05  1.8113910707814826e-05  1.8330208155458940e-05  1.8540689718677180e-05  1.8743751965976090e-05  1.8941505821852279e-05  1.9136475093817837e-05  1.9328796840498169e-05  1.9515943850839071e-05  1.9695060118882769e-05  1.9864792051899238e-05  2.0024389869534043e-05  2.0172954686587854e-05  2.0310053767968637e-05  2.0436223580564800e-05  2.0552884602095621e-05  2.0660774338012471e-05  2.0758922036436554e-05  2.0845871794447875e-05  2.0921433048855799e-05  2.0985686436041529e-05  2.1038463826814702e-05  2.1079461763901475e-05  2.1108450733693118e-05  2.1126271968750290e-05  2.1134726138172348e-05  2.1134640037833975e-05  2.1125245200771205e-05  2.1105667444347141e-05  2.1075450129473057e-05  2.1033980871347310e-05  2.0980433584847580e-05  2.0915099258202754e-05  2.0838992322842643e-05  2.0751701508597395e-05  2.0651895950036441e-05  2.0540984044120911e-05  2.0422823518783909e-05  2.0299259489382794e-05  2.0168498297214913e-05  2.0027369351363147e-05  1.9874583673613239e-05  1.9711724290955074e-05  1.9542134637963847e-05  1.9369498420946497e-05  1.9196707011075780e-05  1.9025890841246282e-05  1.8858970668969235e-05  1.8697085970055419e-05  1.8540256501035820e-05  1.8387147266489983e-05  1.8236296378662585e-05  1.8086400223040008e-05  1.7935357091732327e-05  1.7781764522033379e-05  1.7626283806924556e-05  1.7470627103181216e-05  1.7316564967603409e-05  1.7166155584286616e-05  1.7021159434825502e-05  1.6882441124326552e-05  1.6751221695509402e-05  1.6629781849823744e-05  1.6519579570703603e-05  1.6420020009093193e-05  1.6329594397574372e-05  1.6246533939926730e-05  1.6169503742806116e-05  1.6097893410984060e-05  1.6031560291401460e-05  1.5971758390688191e-05  1.5920320843087690e-05  1.5877988098043515e-05  1.5844538669053928e-05  1.5819560176475531e-05  1.5803453289793112e-05  1.5797719146640195e-05  1.5492722002374574e-05  1.5498477489340262e-05  1.5515282571392903e-05  1.5541597890599476e-05  1.5576607698893487e-05  1.5620652852966752e-05  1.5674583569741446e-05  1.5738636462805542e-05  1.5811915890395096e-05  1.5892776902557979e-05  1.5979918590640206e-05  1.6072947580512901e-05  1.6171569555008836e-05  1.6275150263503733e-05  1.6384674848466823e-05  1.6502781810551078e-05  1.6631017570635668e-05  1.6769450065620797e-05  1.6917597041117080e-05  1.7074261354718872e-05  1.7238759784772722e-05  1.7412790043407921e-05  1.7599186649265134e-05  1.7799634062902121e-05  1.8012515601527720e-05  1.8231997230840123e-05  1.8450783688805793e-05  1.8663435750330164e-05  1.8867799234170003e-05  1.9065304217019822e-05  1.9258580239623565e-05  1.9448578656551631e-05  1.9633712870791965e-05  1.9811801977678481e-05  1.9981595139343701e-05  2.0142372863871693e-05  2.0293149860713215e-05  2.0432978805762895e-05  2.0561675308585638e-05  2.0680407259286121e-05  2.0790129684084776e-05  2.0889976270856040e-05  2.0978299830687820e-05  2.1054637711107234e-05  2.1119537383450065e-05  2.1173446600206901e-05  2.1216568081137590e-05  2.1248504145102642e-05  2.1268839855325985e-05  2.1278177598515465e-05  2.1277543879436035e-05  2.1266914032580241e-05  2.1246204846075560e-05  2.1215875307675187e-05  2.1175519145080870e-05  2.1123459697816713e-05  2.1058667833890904e-05  2.0981571373626585e-05  2.0892317049506921e-05  2.0790439408474663e-05  2.0677438740775144e-05  2.0557160607232473e-05  2.0431810393004806e-05  2.0299605879140007e-05  2.0156925866797084e-05  2.0002184713302616e-05  1.9837040486716115e-05  1.9665160041745334e-05  1.9490461296538760e-05  1.9316044818311696e-05  1.9143923839073112e-05  1.8975391764363111e-05  1.8810887033088787e-05  1.8650124129420876e-05  1.8491883771513528e-05  1.8335094411515057e-05  1.8179083222379085e-05  1.8022170557438898e-05  1.7863133892482738e-05  1.7703015086676594e-05  1.7544234429244002e-05  1.7388873572213587e-05  1.7238481851265600e-05  1.7094018141106296e-05  1.6955941825974695e-05  1.6825136160917498e-05  1.6703097325396212e-05  1.6590841013982138e-05  1.6487857076737866e-05  1.6393027979634096e-05  1.6305302216584061e-05  1.6223718067694166e-05  1.6148341062074506e-05  1.6079856324097392e-05  1.6019341421336570e-05  1.5967982173630520e-05  1.5926149071749370e-05  1.5893682696216174e-05  1.5870287289981476e-05  1.5855842256799119e-05  1.5850868565353283e-05  1.5551337304656632e-05  1.5556830106811761e-05  1.5573108021877537e-05  1.5598811666888332e-05  1.5633011601006760e-05  1.5676083757694218e-05  1.5729204795453190e-05  1.5793032310492582e-05  1.5867163193894934e-05  1.5950061417989850e-05  1.6039896864816002e-05  1.6135182220127449e-05  1.6235152191075158e-05  1.6339757288913470e-05  1.6451002184770731e-05  1.6572815097204813e-05  1.6707420247122232e-05  1.6854136955453947e-05  1.7011123238396156e-05  1.7176567302626678e-05  1.7349538712411065e-05  1.7531510156655918e-05  1.7724746491776069e-05  1.7930029866639848e-05  1.8145476876202179e-05  1.8366104073163837e-05  1.8585797415085256e-05  1.8799658239816156e-05  1.9005354785351378e-05  1.9203663157014232e-05  1.9396765040332925e-05  1.9585863454399482e-05  1.9770114824363582e-05  1.9947894064360328e-05  2.0118216915260188e-05  2.0280542508564533e-05  2.0434114661678787e-05  2.0577779123212879e-05  2.0710480280775162e-05  2.0832569285463896e-05  2.0944743828153166e-05  2.1046270918831726e-05  2.1135552714472061e-05  2.1212020597872708e-05  2.1276604276423696e-05  2.1330577672352493e-05  2.1374728450682538e-05  2.1408595965143682e-05  2.1430946322527003e-05  2.1441270450664597e-05  2.1440249009950732e-05  2.1428445174741772e-05  2.1406652407407603e-05  2.1376265376754412e-05  2.1337155267779627e-05  2.1286911899328780e-05  2.1223271362434449e-05  2.1145970461051521e-05  2.1055428107367272e-05  2.0952013934603886e-05  2.0837347245524067e-05  2.0714733958393497e-05  2.0586339878806684e-05  2.0451100218629901e-05  2.0305708889422609e-05  2.0148401927583789e-05  1.9980513224095836e-05  1.9805650871625985e-05  1.9627870129517894e-05  1.9450716968287730e-05  1.9276679347424242e-05  1.9106682684929275e-05  1.8940212887580165e-05  1.8776000971885452e-05  1.8612674438589619e-05  1.8449618346977387e-05  1.8287047031808193e-05  1.8124110085494985e-05  1.7959827547648086e-05  1.7795167452430467e-05  1.7632757498866303e-05  1.7475164429277500e-05  1.7323856395828923e-05  1.7179149890701101e-05  1.7041008013177851e-05  1.6910044508083795e-05  1.6786943040892099e-05  1.6672215372229483e-05  1.6565709455865290e-05  1.6466765365866300e-05  1.6374947519898869e-05  1.6289744749545690e-05  1.6211272267688793e-05  1.6140775659817532e-05  1.6079422053754860e-05  1.6027680588414877e-05  1.5985368683925112e-05  1.5952514535897236e-05  1.5929355000463843e-05  1.5915707722465626e-05  1.5911237880263353e-05  1.5615395740335357e-05  1.5620789991732356e-05  1.5636705528207983e-05  1.5662114627750807e-05  1.5696071518150069e-05  1.5738741325351661e-05  1.5791341201747447e-05  1.5854915502506237e-05  1.5929634660638431e-05  1.6014372357124128e-05  1.6107115267725954e-05  1.6205525801610698e-05  1.6308122343138452e-05  1.6415148910790733e-05  1.6529422952121047e-05  1.6655829568998272e-05  1.6797381550616164e-05  1.6953046382395969e-05  1.7119666118822902e-05  1.7294542061348232e-05  1.7476381203043500e-05  1.7666190014729916e