<?xml version="1.0"?>
<VTKFile type="UnstructuredGrid"  version="0.1"  >
<UnstructuredGrid>
<Piece  NumberOfPoints="10201" NumberOfCells="20000">
<Points>
<DataArray  type="Float64"  NumberOfComponents="3"  format="ascii">0 0 0  0.25 0 0  0.5 0 0  0.75 0 0  1 0 0  1.25 0 0  1.5 0 0  1.75 0 0  2 0 0  2.25 0 0  2.5 0 0  2.75 0 0  3 0 0  3.25 0 0  3.5 0 0  3.75 0 0  4 0 0  4.25 0 0  4.5 0 0  4.75 0 0  5 0 0  5.25 0 0  5.5 0 0  5.75 0 0  6 0 0  6.25 0 0  6.5 0 0  6.75 0 0  7 0 0  7.25 0 0  7.5 0 0  7.75 0 0  8 0 0  8.25 0 0  8.5 0 0  8.75 0 0  9 0 0  9.25 0 0  9.5 0 0  9.75 0 0  10 0 0  10.25 0 0  10.5 0 0  10.75 0 0  11 0 0  11.25 0 0  11.5 0 0  11.75 0 0  12 0 0  12.25 0 0  12.5 0 0  12.75 0 0  13 0 0  13.25 0 0  13.5 0 0  13.75 0 0  14 0 0  14.25 0 0  14.5 0 0  14.75 0 0  15 0 0  15.25 0 0  15.5 0 0  15.75 0 0  16 0 0  16.25 0 0  16.5 0 0  16.75 0 0  17 0 0  17.25 0 0  17.5 0 0  17.75 0 0  18 0 0  18.25 0 0  18.5 0 0  18.75 0 0  19 0 0  19.25 0 0  19.5 0 0  19.75 0 0  20 0 0  20.25 0 0  20.5 0 0  20.75 0 0  21 0 0  21.25 0 0  21.5 0 0  21.75 0 0  22 0 0  22.25 0 0  22.5 0 0  22.75 0 0  23 0 0  23.25 0 0  23.5 0 0  23.75 0 0  24 0 0  24.25 0 0  24.5 0 0  24.75 0 0  25 0 0  0 0.25 0  0.25 0.25 0  0.5 0.25 0  0.75 0.25 0  1 0.25 0  1.25 0.25 0  1.5 0.25 0  1.75 0.25 0  2 0.25 0  2.25 0.25 0  2.5 0.25 0  2.75 0.25 0  3 0.25 0  3.25 0.25 0  3.5 0.25 0  3.75 0.25 0  4 0.25 0  4.25 0.25 0  4.5 0.25 0  4.75 0.25 0  5 0.25 0  5.25 0.25 0  5.5 0.25 0  5.75 0.25 0  6 0.25 0  6.25 0.25 0  6.5 0.25 0  6.75 0.25 0  7 0.25 0  7.25 0.25 0  7.5 0.25 0  7.75 0.25 0  8 0.25 0  8.25 0.25 0  8.5 0.25 0  8.75 0.25 0  9 0.25 0  9.25 0.25 0  9.5 0.25 0  9.75 0.25 0  10 0.25 0  10.25 0.25 0  10.5 0.25 0  10.75 0.25 0  11 0.25 0  11.25 0.25 0  11.5 0.25 0  11.75 0.25 0  12 0.25 0  12.25 0.25 0  12.5 0.25 0  12.75 0.25 0  13 0.25 0  13.25 0.25 0  13.5 0.25 0  13.75 0.25 0  14 0.25 0  14.25 0.25 0  14.5 0.25 0  14.75 0.25 0  15 0.25 0  15.25 0.25 0  15.5 0.25 0  15.75 0.25 0  16 0.25 0  16.25 0.25 0  16.5 0.25 0  16.75 0.25 0  17 0.25 0  17.25 0.25 0  17.5 0.25 0  17.75 0.25 0  18 0.25 0  18.25 0.25 0  18.5 0.25 0  18.75 0.25 0  19 0.25 0  19.25 0.25 0  19.5 0.25 0  19.75 0.25 0  20 0.25 0  20.25 0.25 0  20.5 0.25 0  20.75 0.25 0  21 0.25 0  21.25 0.25 0  21.5 0.25 0  21.75 0.25 0  22 0.25 0  22.25 0.25 0  22.5 0.25 0  22.75 0.25 0  23 0.25 0  23.25 0.25 0  23.5 0.25 0  23.75 0.25 0  24 0.25 0  24.25 0.25 0  24.5 0.25 0  24.75 0.25 0  25 0.25 0  0 0.5 0  0.25 0.5 0  0.5 0.5 0  0.75 0.5 0  1 0.5 0  1.25 0.5 0  1.5 0.5 0  1.75 0.5 0  2 0.5 0  2.25 0.5 0  2.5 0.5 0  2.75 0.5 0  3 0.5 0  3.25 0.5 0  3.5 0.5 0  3.75 0.5 0  4 0.5 0  4.25 0.5 0  4.5 0.5 0  4.75 0.5 0  5 0.5 0  5.25 0.5 0  5.5 0.5 0  5.75 0.5 0  6 0.5 0  6.25 0.5 0  6.5 0.5 0  6.75 0.5 0  7 0.5 0  7.25 0.5 0  7.5 0.5 0  7.75 0.5 0  8 0.5 0  8.25 0.5 0  8.5 0.5 0  8.75 0.5 0  9 0.5 0  9.25 0.5 0  9.5 0.5 0  9.75 0.5 0  10 0.5 0  10.25 0.5 0  10.5 0.5 0  10.75 0.5 0  11 0.5 0  11.25 0.5 0  11.5 0.5 0  11.75 0.5 0  12 0.5 0  12.25 0.5 0  12.5 0.5 0  12.75 0.5 0  13 0.5 0  13.25 0.5 0  13.5 0.5 0  13.75 0.5 0  14 0.5 0  14.25 0.5 0  14.5 0.5 0  14.75 0.5 0  15 0.5 0  15.25 0.5 0  15.5 0.5 0  15.75 0.5 0  16 0.5 0  16.25 0.5 0  16.5 0.5 0  16.75 0.5 0  17 0.5 0  17.25 0.5 0  17.5 0.5 0  17.75 0.5 0  18 0.5 0  18.25 0.5 0  18.5 0.5 0  18.75 0.5 0  19 0.5 0  19.25 0.5 0  19.5 0.5 0  19.75 0.5 0  20 0.5 0  20.25 0.5 0  20.5 0.5 0  20.75 0.5 0  21 0.5 0  21.25 0.5 0  21.5 0.5 0  21.75 0.5 0  22 0.5 0  22.25 0.5 0  22.5 0.5 0  22.75 0.5 0  23 0.5 0  23.25 0.5 0  23.5 0.5 0  23.75 0.5 0  24 0.5 0  24.25 0.5 0  24.5 0.5 0  24.75 0.5 0  25 0.5 0  0 0.75 0  0.25 0.75 0  0.5 0.75 0  0.75 0.75 0  1 0.75 0  1.25 0.75 0  1.5 0.75 0  1.75 0.75 0  2 0.75 0  2.25 0.75 0  2.5 0.75 0  2.75 0.75 0  3 0.75 0  3.25 0.75 0  3.5 0.75 0  3.75 0.75 0  4 0.75 0  4.25 0.75 0  4.5 0.75 0  4.75 0.75 0  5 0.75 0  5.25 0.75 0  5.5 0.75 0  5.75 0.75 0  6 0.75 0  6.25 0.75 0  6.5 0.75 0  6.75 0.75 0  7 0.75 0  7.25 0.75 0  7.5 0.75 0  7.75 0.75 0  8 0.75 0  8.25 0.75 0  8.5 0.75 0  8.75 0.75 0  9 0.75 0  9.25 0.75 0  9.5 0.75 0  9.75 0.75 0  10 0.75 0  10.25 0.75 0  10.5 0.75 0  10.75 0.75 0  11 0.75 0  11.25 0.75 0  11.5 0.75 0  11.75 0.75 0  12 0.75 0  12.25 0.75 0  12.5 0.75 0  12.75 0.75 0  13 0.75 0  13.25 0.75 0  13.5 0.75 0  13.75 0.75 0  14 0.75 0  14.25 0.75 0  14.5 0.75 0  14.75 0.75 0  15 0.75 0  15.25 0.75 0  15.5 0.75 0  15.75 0.75 0  16 0.75 0  16.25 0.75 0  16.5 0.75 0  16.75 0.75 0  17 0.75 0  17.25 0.75 0  17.5 0.75 0  17.75 0.75 0  18 0.75 0  18.25 0.75 0  18.5 0.75 0  18.75 0.75 0  19 0.75 0  19.25 0.75 0  19.5 0.75 0  19.75 0.75 0  20 0.75 0  20.25 0.75 0  20.5 0.75 0  20.75 0.75 0  21 0.75 0  21.25 0.75 0  21.5 0.75 0  21.75 0.75 0  22 0.75 0  22.25 0.75 0  22.5 0.75 0  22.75 0.75 0  23 0.75 0  23.25 0.75 0  23.5 0.75 0  23.75 0.75 0  24 0.75 0  24.25 0.75 0  24.5 0.75 0  24.75 0.75 0  25 0.75 0  0 1 0  0.25 1 0  0.5 1 0  0.75 1 0  1 1 0  1.25 1 0  1.5 1 0  1.75 1 0  2 1 0  2.25 1 0  2.5 1 0  2.75 1 0  3 1 0  3.25 1 0  3.5 1 0  3.75 1 0  4 1 0  4.25 1 0  4.5 1 0  4.75 1 0  5 1 0  5.25 1 0  5.5 1 0  5.75 1 0  6 1 0  6.25 1 0  6.5 1 0  6.75 1 0  7 1 0  7.25 1 0  7.5 1 0  7.75 1 0  8 1 0  8.25 1 0  8.5 1 0  8.75 1 0  9 1 0  9.25 1 0  9.5 1 0  9.75 1 0  10 1 0  10.25 1 0  10.5 1 0  10.75 1 0  11 1 0  11.25 1 0  11.5 1 0  11.75 1 0  12 1 0  12.25 1 0  12.5 1 0  12.75 1 0  13 1 0  13.25 1 0  13.5 1 0  13.75 1 0  14 1 0  14.25 1 0  14.5 1 0  14.75 1 0  15 1 0  15.25 1 0  15.5 1 0  15.75 1 0  16 1 0  16.25 1 0  16.5 1 0  16.75 1 0  17 1 0  17.25 1 0  17.5 1 0  17.75 1 0  18 1 0  18.25 1 0  18.5 1 0  18.75 1 0  19 1 0  19.25 1 0  19.5 1 0  19.75 1 0  20 1 0  20.25 1 0  20.5 1 0  20.75 1 0  21 1 0  21.25 1 0  21.5 1 0  21.75 1 0  22 1 0  22.25 1 0  22.5 1 0  22.75 1 0  23 1 0  23.25 1 0  23.5 1 0  23.75 1 0  24 1 0  24.25 1 0  24.5 1 0  24.75 1 0  25 1 0  0 1.25 0  0.25 1.25 0  0.5 1.25 0  0.75 1.25 0  1 1.25 0  1.25 1.25 0  1.5 1.25 0  1.75 1.25 0  2 1.25 0  2.25 1.25 0  2.5 1.25 0  2.75 1.25 0  3 1.25 0  3.25 1.25 0  3.5 1.25 0  3.75 1.25 0  4 1.25 0  4.25 1.25 0  4.5 1.25 0  4.75 1.25 0  5 1.25 0  5.25 1.25 0  5.5 1.25 0  5.75 1.25 0  6 1.25 0  6.25 1.25 0  6.5 1.25 0  6.75 1.25 0  7 1.25 0  7.25 1.25 0  7.5 1.25 0  7.75 1.25 0  8 1.25 0  8.25 1.25 0  8.5 1.25 0  8.75 1.25 0  9 1.25 0  9.25 1.25 0  9.5 1.25 0  9.75 1.25 0  10 1.25 0  10.25 1.25 0  10.5 1.25 0  10.75 1.25 0  11 1.25 0  11.25 1.25 0  11.5 1.25 0  11.75 1.25 0  12 1.25 0  12.25 1.25 0  12.5 1.25 0  12.75 1.25 0  13 1.25 0  13.25 1.25 0  13.5 1.25 0  13.75 1.25 0  14 1.25 0  14.25 1.25 0  14.5 1.25 0  14.75 1.25 0  15 1.25 0  15.25 1.25 0  15.5 1.25 0  15.75 1.25 0  16 1.25 0  16.25 1.25 0  16.5 1.25 0  16.75 1.25 0  17 1.25 0  17.25 1.25 0  17.5 1.25 0  17.75 1.25 0  18 1.25 0  18.25 1.25 0  18.5 1.25 0  18.75 1.25 0  19 1.25 0  19.25 1.25 0  19.5 1.25 0  19.75 1.25 0  20 1.25 0  20.25 1.25 0  20.5 1.25 0  20.75 1.25 0  21 1.25 0  21.25 1.25 0  21.5 1.25 0  21.75 1.25 0  22 1.25 0  22.25 1.25 0  22.5 1.25 0  22.75 1.25 0  23 1.25 0  23.25 1.25 0  23.5 1.25 0  23.75 1.25 0  24 1.25 0  24.25 1.25 0  24.5 1.25 0  24.75 1.25 0  25 1.25 0  0 1.5 0  0.25 1.5 0  0.5 1.5 0  0.75 1.5 0  1 1.5 0  1.25 1.5 0  1.5 1.5 0  1.75 1.5 0  2 1.5 0  2.25 1.5 0  2.5 1.5 0  2.75 1.5 0  3 1.5 0  3.25 1.5 0  3.5 1.5 0  3.75 1.5 0  4 1.5 0  4.25 1.5 0  4.5 1.5 0  4.75 1.5 0  5 1.5 0  5.25 1.5 0  5.5 1.5 0  5.75 1.5 0  6 1.5 0  6.25 1.5 0  6.5 1.5 0  6.75 1.5 0  7 1.5 0  7.25 1.5 0  7.5 1.5 0  7.75 1.5 0  8 1.5 0  8.25 1.5 0  8.5 1.5 0  8.75 1.5 0  9 1.5 0  9.25 1.5 0  9.5 1.5 0  9.75 1.5 0  10 1.5 0  10.25 1.5 0  10.5 1.5 0  10.75 1.5 0  11 1.5 0  11.25 1.5 0  11.5 1.5 0  11.75 1.5 0  12 1.5 0  12.25 1.5 0  12.5 1.5 0  12.75 1.5 0  13 1.5 0  13.25 1.5 0  13.5 1.5 0  13.75 1.5 0  14 1.5 0  14.25 1.5 0  14.5 1.5 0  14.75 1.5 0  15 1.5 0  15.25 1.5 0  15.5 1.5 0  15.75 1.5 0  16 1.5 0  16.25 1.5 0  16.5 1.5 0  16.75 1.5 0  17 1.5 0  17.25 1.5 0  17.5 1.5 0  17.75 1.5 0  18 1.5 0  18.25 1.5 0  18.5 1.5 0  18.75 1.5 0  19 1.5 0  19.25 1.5 0  19.5 1.5 0  19.75 1.5 0  20 1.5 0  20.25 1.5 0  20.5 1.5 0  20.75 1.5 0  21 1.5 0  21.25 1.5 0  21.5 1.5 0  21.75 1.5 0  22 1.5 0  22.25 1.5 0  22.5 1.5 0  22.75 1.5 0  23 1.5 0  23.25 1.5 0  23.5 1.5 0  23.75 1.5 0  24 1.5 0  24.25 1.5 0  24.5 1.5 0  24.75 1.5 0  25 1.5 0  0 1.75 0  0.25 1.75 0  0.5 1.75 0  0.75 1.75 0  1 1.75 0  1.25 1.75 0  1.5 1.75 0  1.75 1.75 0  2 1.75 0  2.25 1.75 0  2.5 1.75 0  2.75 1.75 0  3 1.75 0  3.25 1.75 0  3.5 1.75 0  3.75 1.75 0  4 1.75 0  4.25 1.75 0  4.5 1.75 0  4.75 1.75 0  5 1.75 0  5.25 1.75 0  5.5 1.75 0  5.75 1.75 0  6 1.75 0  6.25 1.75 0  6.5 1.75 0  6.75 1.75 0  7 1.75 0  7.25 1.75 0  7.5 1.75 0  7.75 1.75 0  8 1.75 0  8.25 1.75 0  8.5 1.75 0  8.75 1.75 0  9 1.75 0  9.25 1.75 0  9.5 1.75 0  9.75 1.75 0  10 1.75 0  10.25 1.75 0  10.5 1.75 0  10.75 1.75 0  11 1.75 0  11.25 1.75 0  11.5 1.75 0  11.75 1.75 0  12 1.75 0  12.25 1.75 0  12.5 1.75 0  12.75 1.75 0  13 1.75 0  13.25 1.75 0  13.5 1.75 0  13.75 1.75 0  14 1.75 0  14.25 1.75 0  14.5 1.75 0  14.75 1.75 0  15 1.75 0  15.25 1.75 0  15.5 1.75 0  15.75 1.75 0  16 1.75 0  16.25 1.75 0  16.5 1.75 0  16.75 1.75 0  17 1.75 0  17.25 1.75 0  17.5 1.75 0  17.75 1.75 0  18 1.75 0  18.25 1.75 0  18.5 1.75 0  18.75 1.75 0  19 1.75 0  19.25 1.75 0  19.5 1.75 0  19.75 1.75 0  20 1.75 0  20.25 1.75 0  20.5 1.75 0  20.75 1.75 0  21 1.75 0  21.25 1.75 0  21.5 1.75 0  21.75 1.75 0  22 1.75 0  22.25 1.75 0  22.5 1.75 0  22.75 1.75 0  23 1.75 0  23.25 1.75 0  23.5 1.75 0  23.75 1.75 0  24 1.75 0  24.25 1.75 0  24.5 1.75 0  24.75 1.75 0  25 1.75 0  0 2 0  0.25 2 0  0.5 2 0  0.75 2 0  1 2 0  1.25 2 0  1.5 2 0  1.75 2 0  2 2 0  2.25 2 0  2.5 2 0  2.75 2 0  3 2 0  3.25 2 0  3.5 2 0  3.75 2 0  4 2 0  4.25 2 0  4.5 2 0  4.75 2 0  5 2 0  5.25 2 0  5.5 2 0  5.75 2 0  6 2 0  6.25 2 0  6.5 2 0  6.75 2 0  7 2 0  7.25 2 0  7.5 2 0  7.75 2 0  8 2 0  8.25 2 0  8.5 2 0  8.75 2 0  9 2 0  9.25 2 0  9.5 2 0  9.75 2 0  10 2 0  10.25 2 0  10.5 2 0  10.75 2 0  11 2 0  11.25 2 0 
[...]
<PointData  Scalars="f_26"> 
<DataArray  type="Float64"  Name="f_26"  format="ascii">2.4041485011142938e-05  2.4038354760481794e-05  2.4031323254755768e-05  2.4020085238015468e-05  2.4004593874860732e-05  2.3984893862668337e-05  2.3961086480732433e-05  2.3933326443454011e-05  2.3901827127746483e-05  2.3866867584518182e-05  2.3828798728017953e-05  2.3788047179137716e-05  2.3745115665193996e-05  2.3700579197835926e-05  2.3655076600511073e-05  2.3609297357807719e-05  2.3563964189152108e-05  2.3519812169699050e-05  2.3477565588568573e-05  2.3437914011730515e-05  2.3401489175761992e-05  2.3368844345887563e-05  2.3340437566159609e-05  2.3316619733453735e-05  2.3297627625660096e-05  2.3283581075725016e-05  2.3274482786092724e-05  2.3270219236253984e-05  2.3270561884686913e-05  2.3275169075125170e-05  2.3283590082735286e-05  2.3295273033526184e-05  2.3309577893557995e-05  2.3325794692954666e-05  2.3343166126424364e-05  2.3360913011521187e-05  2.3378260869421631e-05  2.3394466003530093e-05  2.3408839720694878e-05  2.3420769648509339e-05  2.3429737398343669e-05  2.3435332096662783e-05  2.3437259556314250e-05  2.3435347080092919e-05  2.3429544072518492e-05  2.3419918775927454e-05  2.3406651542986849e-05  2.3390025114127332e-05  2.3370412391556479e-05  2.3348262196455554e-05  2.3324083466147973e-05  2.3298428299950291e-05  2.3271874214340287e-05  2.3245005959175240e-05  2.3218397338671660e-05  2.3192593740367287e-05  2.3168096527511467e-05  2.3145351010158747e-05  2.3124740128556842e-05  2.3106585871853583e-05  2.3091159444475184e-05  2.3078699179823547e-05  2.3069432571406919e-05  2.3063596430299188e-05  2.3061448198880362e-05  2.3063262720540543e-05  2.3069312407500723e-05  2.3079833851033449e-05  2.3094988657399955e-05  2.3114828626287519e-05  2.3139274124466206e-05  2.3168110121424900e-05  2.3200998853571352e-05  2.3237503864845803e-05  2.3277118665148973e-05  2.3319294330725897e-05  2.3363462813201560e-05  2.3409055131815287e-05  2.3455515145937719e-05  2.3502310101049653e-05  2.3548938944018384e-05  2.3594938967591212e-05  2.3639890983829896e-05  2.3683423040215790e-05  2.3725212644311218e-05  2.3764987490409205e-05  2.3802524741179115e-05  2.3837648983395811e-05  2.3870229033220846e-05  2.3900173803937444e-05  2.3927427465029377e-05  2.3951964118826395e-05  2.3973782205041345e-05  2.3992898819607884e-05  2.4009344104410903e-05  2.4023155823064440e-05  2.4034374156599035e-05  2.4043036522068227e-05  2.4049171385597943e-05  2.4052786602423635e-05  2.4053832275467546e-05  2.4037222986719303e-05  2.4034773780233654e-05  2.4027926588299925e-05  2.4016764006950605e-05  2.4001326933487396e-05  2.3981682570104695e-05  2.3957939328397550e-05  2.3930254961418094e-05  2.3898844544129079e-05  2.3863988197148268e-05  2.3826037450972528e-05  2.3785419112939697e-05  2.3742635654223242e-05  2.3698261379499397e-05  2.3652933967387302e-05  2.3607341359031936e-05  2.3562204393839038e-05  2.3518256005407005e-05  2.3476218157014609e-05  2.3436777979508696e-05  2.3400564742165971e-05  2.3368129296545249e-05  2.3339927420891905e-05  2.3316307986764013e-05  2.3297506062662981e-05  2.3283640131612140e-05  2.3274711909441325e-05  2.3270607219599959e-05  2.3271097139573364e-05  2.3275839847927090e-05  2.3284384623874175e-05  2.3296179740005139e-05  2.3310585441939023e-05  2.3326892170645751e-05  2.3344343158985889e-05  2.3362159876921751e-05  2.3379568588307558e-05  2.3395826396738111e-05  2.3410245429408667e-05  2.3422214116731402e-05  2.3431214820642723e-05  2.3436837336271209e-05  2.3438788039925481e-05  2.3436894676547810e-05  2.3431106963158589e-05  2.3421493324663602e-05  2.3408234173906344e-05  2.3391612203657940e-05  2.3372000181002991e-05  2.3349846729641798e-05  2.3325660556676707e-05  2.3299993533871671e-05  2.3273422996803568e-05  2.3246533616753453e-05  2.3219899289826789e-05  2.3194065741166866e-05  2.3169534984802438e-05  2.3146753329577106e-05  2.3126105035251122e-05  2.3107913618693856e-05  2.3092451818902128e-05  2.3079959245162255e-05  2.3070664131217788e-05  2.3064803275580209e-05  2.3062633270713114e-05  2.3064427371948806e-05  2.3070455951623091e-05  2.3080953520729733e-05  2.3096079984031524e-05  2.3115886117410779e-05  2.3140292040797909e-05  2.3169083157743120e-05  2.3201922603240425e-05  2.3238375045084483e-05  2.3277935152094302e-05  2.3320055079422164e-05  2.3364167726917714e-05  2.3409704920272655e-05  2.3456111191824147e-05  2.3502854343844960e-05  2.3549433784215909e-05  2.3595387188018477e-05  2.3640295679888794e-05  2.3683787550869249e-05  2.3725540479543157e-05  2.3765282255144787e-05  2.3802790058176636e-05  2.3837888418440149e-05  2.3870446025889871e-05  2.3900371606930904e-05  2.3927609094850050e-05  2.3952132320635996e-05  2.3973939435051610e-05  2.3993047250278152e-05  2.4009485663870529e-05  2.4023292300731227e-05  2.4034507481687055e-05  2.4043169620259732e-05  2.4049311317685254e-05  2.4052957725980671e-05  2.4054136657388263e-05  2.4026826487447982e-05  2.4024563375962281e-05  2.4017874761986192e-05  2.4006844071236815e-05  2.3991539528007229e-05  2.3972045481990258e-05  2.3948480157121747e-05  2.3921007540545157e-05  2.3889847150633583e-05  2.3855282408610861e-05  2.3817667144091865e-05  2.3777429403117650e-05  2.3735071718834941e-05  2.3691167179307365e-05  2.3646350919173989e-05  2.3601307031247760e-05  2.3556751300461062e-05  2.3513410564607570e-05  2.3471999866397292e-05  2.3433198846548189e-05  2.3397629002617078e-05  2.3365833452300279e-05  2.3338260620316119e-05  2.3315252741002280e-05  2.3297039237164804e-05  2.3283734089702688e-05  2.3275335646947529e-05  2.3271727344925999e-05  2.3272678623426774e-05  2.3277846559537299e-05  2.3286779741020595e-05  2.3298926139116816e-05  2.3313646143790774e-05  2.3330230862450093e-05  2.3347924764311899e-05  2.3365951117820466e-05  2.3383538480578554e-05  2.3399946631356795e-05  2.3414490611275736e-05  2.3426561849729843e-05  2.3435645642779930e-05  2.3441334520009571e-05  2.3443337281028734e-05  2.3441483700242476e-05  2.3435725079269516e-05  2.3426130963692618e-05  2.3412882433985816e-05  2.3396262434459019e-05  2.3376643625980442e-05  2.3354474243833610e-05  2.3330262415209244e-05  2.3304559347578982e-05  2.3277941756009799e-05  2.3250993890108705e-05  2.3224289606847614e-05  2.3198375176703900e-05  2.3173753932697007e-05  2.3150874398017812e-05  2.3130123925875001e-05  2.3111829787566105e-05  2.3096268691641917e-05  2.3083683798266703e-05  2.3074305765726330e-05  2.3068372078991482e-05  2.3066137945080308e-05  2.3067873242695698e-05  2.3073843506551788e-05  2.3084277828249781e-05  2.3099331116958847e-05  2.3119050434674917e-05  2.3143353959961281e-05  2.3172026972903987e-05  2.3204733982526752e-05  2.3241042020698329e-05  2.3280448601457570e-05  2.3322408817682237e-05  2.3366358368251323e-05  2.3411731639639762e-05  2.3457975467232189e-05  2.3504559711535387e-05  2.3550985608914375e-05  2.3596792437644789e-05  2.3641562693082642e-05  2.3684925790226933e-05  2.3726560269430052e-05  2.3766194508186564e-05  2.3803605998197717e-05  2.3838619309628250e-05  2.3871102918616682e-05  2.3900965110384054e-05  2.3928149185895173e-05  2.3952628197651884e-05  2.3974399425628743e-05  2.3993478784130854e-05  2.4009895330519420e-05  2.4023686033800975e-05  2.4034890967336039e-05  2.4043549150286537e-05  2.4049695475699030e-05  2.4053359735948331e-05  2.4054569548637752e-05  2.4010061355026334e-05  2.4007875435880992e-05  2.4001318376082004e-05  2.3990449737026888e-05  2.3975340604002708e-05  2.3956083801234478e-05  2.3932805878908050e-05  2.3905678054641073e-05  2.3874925963696905e-05  2.3840837993913216e-05  2.3803771617303813e-05  2.3764156944068749e-05  2.3722496732649087e-05  2.3679362250114818e-05  2.3635384651862489e-05  2.3591241900701450e-05  2.3547641633343482e-05  2.3505300768486864e-05  2.3464923001831786e-05  2.3427175619671784e-05  2.3392667245799126e-05  2.3361928154573539e-05  2.3335394549356646e-05  2.3313397641853017e-05  2.3296157494656611e-05  2.3283780632848402e-05  2.3276259813413234e-05  2.3273474460157153e-05  2.3275191178911596e-05  2.3281065037763504e-05  2.3290643251512557e-05  2.3303373053150078e-05  2.3318614853604428e-05  2.3335660692047038e-05  2.3353756974107818e-05  2.3372129901523175e-05  2.3390011849509998e-05  2.3406667103778616e-05  2.3421415655879346e-05  2.3433654063017032e-05  2.3442872665528050e-05  2.3448668717838370e-05  2.3450755228748298e-05  2.3448965519518005e-05  2.3443253684280619e-05  2.3433691270010103e-05  2.3420460582299445e-05  2.3403845074078524e-05  2.3384217294841905e-05  2.3362024874260327e-05  2.3337774990297766e-05  2.3312017733705539e-05  2.3285328742806636e-05  2.3258291477347311e-05  2.3231479580409800e-05  2.3205440001241600e-05  2.3180677943797083e-05  2.3157645195596008e-05  2.3136733763411620e-05  2.3118276650762213e-05  2.3102556713108166e-05  2.3089822706774097e-05  2.3080309236761946e-05  2.3074255112344006e-05  2.3071913678555215e-05  2.3073549829215564e-05  2.3079421748219404e-05  2.3089750123664256e-05  2.3104681953287817e-05  2.3124258243093489e-05  2.3148393805928438e-05  2.3176873405516388e-05  2.3209363459038935e-05  2.3245434578951342e-05  2.3284588739841840e-05  2.3326285745314414e-05  2.3369965863621497e-05  2.3415067727539369e-05  2.3461042045854897e-05  2.3507362184007209e-05  2.3553532523054641e-05  2.3599095117955669e-05  2.3643634849437557e-05  2.3686783096141192e-05  2.3728219911773234e-05  2.3767674717281271e-05  2.3804925572122104e-05  2.3839797149308537e-05  2.3872157591177308e-05  2.3901914457602859e-05  2.3929009993030645e-05  2.3953415936005835e-05  2.3975128080706102e-05  2.3994160781050553e-05  2.4010541570502987e-05  2.4024306060648294e-05  2.4035493286096255e-05  2.4044141691488670e-05  2.4050286008294639e-05  2.4053955258495279e-05  2.4055171564920422e-05  2.3986993977638729e-05  2.3984862937044988e-05  2.3978435272633221e-05  2.3967758142760976e-05  2.3952901807033448e-05  2.3933964155983597e-05  2.3911078951632963e-05  2.3884425021721722e-05  2.3854235155959533e-05  2.3820803870381213e-05  2.3784493235716913e-05  2.3745735958328941e-05  2.3705034975070865e-05  2.3662959000287542e-05  2.3620133732964899e-05  2.3577228767953289e-05  2.3534940623781063e-05  2.3493972668536531e-05  2.3455013067914868e-05  2.3418712169011882e-05  2.3385660925790402e-05  2.3356371990093098e-05  2.3331264831107450e-05  2.3310655625937918e-05  2.3294751734552978e-05  2.3283649612090019e-05  2.3277334476119152e-05  2.3275680307951960e-05  2.3278449800001187e-05  2.3285295163606398e-05  2.3295761588101706e-05  2.3309295149688710e-05  2.3325256172837467e-05  2.3342937905084585e-05  2.3361589387534592e-05  2.3380440869188165e-05  2.3398730021651354e-05  2.3415727399565957e-05  2.3430759889862461e-05  2.3443231198088302e-05  2.3452638699981523e-05  2.3458586241495843e-05  2.3460792703576133e-05  2.3459096354031697e-05  2.3453455178342548e-05  2.3443943507488550e-05  2.3430745344107659e-05  2.3414144834730390e-05  2.3394514354030898e-05  2.3372300663960731e-05  2.3348009590643533e-05  2.3322189629974200e-05  2.3295414861738478e-05  2.3268267550300547e-05  2.3241320884278404e-05  2.3215122510690026e-05  2.3190179873574080e-05  2.3166948810608560e-05  2.3145827198118701e-05  2.3127155347524487e-05  2.3111224022630280e-05  2.3098289252553477e-05  2.3088590856115655e-05  2.3082369519840830e-05  2.3079876368492438e-05  2.3081370023956813e-05  2.3087099293687507e-05  2.3097274063427513e-05  2.3112031098553970e-05  2.3131403524351204e-05  2.3155301739366204e-05  2.3183509806684848e-05  2.3215696641910832e-05  2.3251437600753981e-05  2.3290240620958311e-05  2.3331571861016956e-05  2.3374877809705600e-05  2.3419602931047022e-05  2.3465203293717834e-05  2.3511157141858779e-05  2.3556973250498591e-05  2.3602197561024101e-05  2.3646418292279219e-05  2.3689269565479974e-05  2.3730433539448825e-05  2.3769641075158357e-05  2.3806670999646521e-05  2.3841348097252284e-05  2.3873540005909566e-05  2.3903153228975665e-05  2.3930128486279036e-05  2.3954435624586230e-05  2.3976068293282439e-05  2.3995038572139613e-05  2.4011371720116057e-05  2.4025101201030020e-05  2.4036264135057628e-05  2.4044897320030280e-05  2.4051033941952575e-05  2.4054700982551275e-05  2.4055916992401323e-05  2.3957822950129691e-05  2.3955745839173466e-05  2.3949459621747790e-05  2.3939007333768947e-05  2.3924460032240109e-05  2.3905920431490183e-05  2.3883529414045245e-05  2.3857473825115756e-05  2.3827994329987685e-05  2.3795392340554208e-05  2.3760035109038929e-05  2.3722358155670392e-05  2.3682864314560381e-05  2.3642118875463752e-05  2.3600740566101831e-05  2.3559388440850096e-05  2.3518745090627374e-05  2.3479496941782920e-05  2.3442312749345464e-05  2.3407821686514387e-05  2.3376592633465042e-05  2.3349116276361477e-05  2.3325791318350782e-05  2.3306915403959591e-05  2.3292680363459490e-05  2.3283170438659558e-05  2.3278361742372879e-05  2.3278121655151396e-05  2.3282208043802497e-05  2.3290269505732261e-05  2.3301848600374652e-05  2.3316389859734954e-05  2.3333253438860689e-05  2.3351734085169934e-05  2.3371084170471446e-05  2.3390539073448398e-05  2.3409343176629667e-05  2.3426774968588744e-05  2.3442170050827451e-05  2.3454941149809192e-05  2.3464594505398413e-05  2.3470742252766843e-05  2.3473110639534576e-05  2.3471544117902599e-05  2.3466005512870185e-05  2.3456572585818837e-05  2.3443431388633876e-05  2.3426866844285512e-05  2.3407251004876583e-05  2.3385029435366122e-05  2.3360706155201591e-05  2.3334827545296036e-05  2.3307965604694404e-05  2.3280700944007658e-05  2.3253605971525690e-05  2.3227228908672622e-05  2.3202079584417150e-05  2.3178618348834915e-05  2.3157249740771251e-05  2.3138322458185314e-05  2.3122136417347355e-05  2.3108956135544196e-05  2.3099027591919635e-05  2.3092593796778636e-05  2.3089903447413962e-05  2.3091208014568752e-05  2.3096745518597448e-05  2.3106713374687405e-05  2.3121236527587756e-05  2.3140339024130257e-05  2.3163926247303278e-05  2.3191781618627340e-05  2.3223577205072385e-05  2.3258894203721160e-05  2.3297247886692110e-05  2.3338112262146911e-05  2.3380941552078810e-05  2.3425187519372179e-05  2.3470312980938232e-05  2.3515802347742405e-05  2.3561169958578502e-05  2.3605966673705521e-05  2.3649784925914932e-05  2.3692262280995804e-05  2.3733083518080965e-05  2.3771981259421147e-05  2.3808735226536956e-05  2.3843170254213788e-05  2.3875153240547389e-05  2.3904589241445476e-05  2.3931416929345833e-05  2.3955603631262244e-05  2.3977140146182034e-05  2.3996035522287662e-05  2.4012311955200326e-05  2.4025999951929047e-05  2.4037133890729660e-05  2.4045748088933229e-05  2.4051873455275461e-05  2.4055534728632791e-05  2.4056748188279586e-05  2.3922840985079870e-05  2.3920822710143061e-05  2.3914696359504655e-05  2.3904505032965680e-05  2.3890322623775694e-05  2.3872257468878850e-05  2.3850458019209897e-05  2.3825119595787720e-05  2.3796491236520544e-05  2.3764881680235180e-05  2.3730663591126393e-05  2.3694275209766642e-05  2.3656218751808407e-05  2.3617055075147890e-05  2.3577394396433719e-05  2.3537883142559335e-05  2.3499187353154620e-05  2.3461973391153943e-05  2.3426887057346918e-05  2.3394532512641835e-05  2.3365452617407439e-05  2.3340112276720758e-05  2.3318885994034452e-05  2.3302050030743195e-05  2.3289778509389316e-05  2.3282141903565126e-05  2.3279106130452552e-05  2.3280531148153306e-05  2.3286169296084981e-05  2.3295664920721249e-05  2.3308557417354910e-05  2.3324289434604334e-05  2.3342220911278004e-05  2.3361648405937668e-05  2.3381828309239549e-05  2.3402002168677554e-05  2.3421422408203479e-05  2.3439376991489292e-05  2.3455211895493944e-05  2.3468350555475547e-05  2.3478309702392703e-05  2.3484711248882677e-05  2.3487290095195411e-05  2.3485897915202742e-05  2.3480503134482460e-05  2.3471187421242625e-05  2.3458139078116433e-05  2.3441643756778524e-05  2.3422072928410927e-05  2.3399870539949179e-05  2.3375538273901589e-05  2.3349619812160275e-05  2.3322684489881833e-05  2.3295310733754177e-05  2.3268069743218597e-05  2.3241510032006859e-05  2.3216143717706311e-05  2.3192435781742625e-05  2.3170797770280826e-05  2.3151587317244438e-05  2.3135114180036267e-05  2.3121652078813053e-05  2.3111453746186911e-05  2.3104764839213990e-05  2.3101831576613096e-05  2.3102897834827166e-05  2.3108190097507871e-05  2.3117892425950788e-05  2.3132117140694983e-05  2.3150878682020482e-05  2.3174077294221498e-05  2.3201496080040812e-05  2.3232810986469512e-05  2.3267610094019554e-05  2.3305417254562717e-05  2.3345715674480406e-05  2.3387968684043052e-05  2.3431636693797670e-05  2.3476190555446168e-05  2.3521122043629252e-05  2.3565952143760495e-05  2.3610237580989935e-05  2.3653575790476047e-05  2.3695608396226111e-05  2.3736023224509814e-05  2.3774554893115797e-05  2.3810984060897724e-05  2.3845135472606125e-05  2.3876874977164774e-05  2.3906105724784817e-05  2.3932763757501945e-05  2.3956813201689065e-05  2.3978241255172815e-05  2.3997053141357309e-05  2.4013267182492007e-05  2.4026910125934893e-05  2.4038012840282124e-05  2.4046606479050885e-05  2.4052719182788561e-05  2.4056373353837282e-05  2.4057583508670249e-05  2.3882427001235991e-05  2.3880474088495764e-05  2.3874528365550275e-05  2.3864635022631607e-05  2.3850872248772383e-05  2.3833354856821926e-05  2.3812239378774285e-05  2.3787729967088204e-05  2.3760084280646104e-05  2.3729618491543953e-05  2.3696710571289588e-05  2.3661801092458769e-05  2.3625390918306957e-05  2.3588035348945964e-05  2.3550334540870100e-05  2.3512920303942494e-05  2.3476439695012801e-05  2.3441536163981856e-05  2.3408829356608116e-05  2.3378894999850729e-05  2.3352246493818964e-05  2.3329319756554987e-05  2.3310462368202070e-05  2.3295927130827904e-05  2.3285869052182961e-05  2.3280343971796298e-05  2.3279307067589097e-05  2.3282610438873744e-05  2.3290000439983457e-05  2.3301116676225687e-05  2.3315494937836649e-05  2.3332575718329214e-05  2.3351718742706059e-05  2.3372222716658114e-05  2.3393348726914019e-05  2.3414345473490476e-05  2.3434474649009593e-05  2.3453035084702976e-05  2.3469384606495549e-05  2.3482958829754709e-05  2.3493286368406395e-05  2.3500000157773702e-05  2.3502844795323783e-05  2.3501679982089523e-05  2.3496480288941959e-05  2.3487331570179083e-05  2.3474424404512831e-05  2.3458044969667355e-05  2.3438563762999739e-05  2.3416422576407410e-05  2.3392120124937784e-05  2.3366196718321350e-05  2.3339218359249385e-05  2.3311760666698145e-05  2.3284393083622167e-05  2.3257663966984974e-05  2.3232087387560947e-05  2.3208132746265161e-05  2.3186218513631683e-05  2.3166711303167901e-05  2.3149930866936733e-05  2.3136160354037520e-05  2.3125659491497084e-05  2.3118676773048533e-05  2.3115456025755625e-05  2.3116233500397742e-05  2.3121224027089903e-05  2.3130598184972392e-05  2.3144455623928306e-05  2.3162801298738533e-05  2.3185530660919414e-05  2.3212427085170690e-05  2.3243171218864012e-05  2.3277359035366248e-05  2.3314524111361252e-05  2.3354160076794804e-05  2.3395740625369324e-05  2.3438736056829441e-05  2.3482626448309334e-05  2.3526912045098612e-05  2.3571121473347001e-05  2.3614818178762311e-05  2.3657605294634860e-05  2.3699129022569085e-05  2.3739080568383377e-05  2.3777196686927924e-05  2.3813258928084987e-05  2.3847091722272288e-05  2.3878559482885751e-05  2.3907562927051520e-05  2.3934034822885079e-05  2.3957935363959157e-05  2.3979247354968727e-05  2.3997971371929921e-05  2.4014121039650736e-05  2.4027718550650169e-05  2.4038790533069483e-05  2.4047364358750753e-05  2.4053464964884884e-05  2.4057112245189394e-05  2.4058319059860759e-05  2.3837044862258411e-05  2.3835164022987261e-05  2.3829419921124774e-05  2.3819860816397696e-05  2.3806570051326627e-05  2.3789669484635138e-05  2.3769324043422065e-05  2.3745746832231532e-05  2.3719204086584791e-05  2.3690019194304852e-05  2.3658575014726195e-05  2.3625313796378173e-05  2.3590734124807148e-05  2.3555384518700301e-05  2.3519853525742386e-05  2.3484756441231428e-05  2.3450719079388642e-05  2.3418359370430192e-05  2.3388267923207377e-05  2.3360989025124182e-05  2.3337003718758039e-05  2.3316716418727068e