<?xml version="1.0"?>
<VTKFile type="UnstructuredGrid"  version="0.1"  >
<UnstructuredGrid>
<Piece  NumberOfPoints="10201" NumberOfCells="20000">
<Points>
<DataArray  type="Float64"  NumberOfComponents="3"  format="ascii">0 0 0  0.25 0 0  0.5 0 0  0.75 0 0  1 0 0  1.25 0 0  1.5 0 0  1.75 0 0  2 0 0  2.25 0 0  2.5 0 0  2.75 0 0  3 0 0  3.25 0 0  3.5 0 0  3.75 0 0  4 0 0  4.25 0 0  4.5 0 0  4.75 0 0  5 0 0  5.25 0 0  5.5 0 0  5.75 0 0  6 0 0  6.25 0 0  6.5 0 0  6.75 0 0  7 0 0  7.25 0 0  7.5 0 0  7.75 0 0  8 0 0  8.25 0 0  8.5 0 0  8.75 0 0  9 0 0  9.25 0 0  9.5 0 0  9.75 0 0  10 0 0  10.25 0 0  10.5 0 0  10.75 0 0  11 0 0  11.25 0 0  11.5 0 0  11.75 0 0  12 0 0  12.25 0 0  12.5 0 0  12.75 0 0  13 0 0  13.25 0 0  13.5 0 0  13.75 0 0  14 0 0  14.25 0 0  14.5 0 0  14.75 0 0  15 0 0  15.25 0 0  15.5 0 0  15.75 0 0  16 0 0  16.25 0 0  16.5 0 0  16.75 0 0  17 0 0  17.25 0 0  17.5 0 0  17.75 0 0  18 0 0  18.25 0 0  18.5 0 0  18.75 0 0  19 0 0  19.25 0 0  19.5 0 0  19.75 0 0  20 0 0  20.25 0 0  20.5 0 0  20.75 0 0  21 0 0  21.25 0 0  21.5 0 0  21.75 0 0  22 0 0  22.25 0 0  22.5 0 0  22.75 0 0  23 0 0  23.25 0 0  23.5 0 0  23.75 0 0  24 0 0  24.25 0 0  24.5 0 0  24.75 0 0  25 0 0  0 0.25 0  0.25 0.25 0  0.5 0.25 0  0.75 0.25 0  1 0.25 0  1.25 0.25 0  1.5 0.25 0  1.75 0.25 0  2 0.25 0  2.25 0.25 0  2.5 0.25 0  2.75 0.25 0  3 0.25 0  3.25 0.25 0  3.5 0.25 0  3.75 0.25 0  4 0.25 0  4.25 0.25 0  4.5 0.25 0  4.75 0.25 0  5 0.25 0  5.25 0.25 0  5.5 0.25 0  5.75 0.25 0  6 0.25 0  6.25 0.25 0  6.5 0.25 0  6.75 0.25 0  7 0.25 0  7.25 0.25 0  7.5 0.25 0  7.75 0.25 0  8 0.25 0  8.25 0.25 0  8.5 0.25 0  8.75 0.25 0  9 0.25 0  9.25 0.25 0  9.5 0.25 0  9.75 0.25 0  10 0.25 0  10.25 0.25 0  10.5 0.25 0  10.75 0.25 0  11 0.25 0  11.25 0.25 0  11.5 0.25 0  11.75 0.25 0  12 0.25 0  12.25 0.25 0  12.5 0.25 0  12.75 0.25 0  13 0.25 0  13.25 0.25 0  13.5 0.25 0  13.75 0.25 0  14 0.25 0  14.25 0.25 0  14.5 0.25 0  14.75 0.25 0  15 0.25 0  15.25 0.25 0  15.5 0.25 0  15.75 0.25 0  16 0.25 0  16.25 0.25 0  16.5 0.25 0  16.75 0.25 0  17 0.25 0  17.25 0.25 0  17.5 0.25 0  17.75 0.25 0  18 0.25 0  18.25 0.25 0  18.5 0.25 0  18.75 0.25 0  19 0.25 0  19.25 0.25 0  19.5 0.25 0  19.75 0.25 0  20 0.25 0  20.25 0.25 0  20.5 0.25 0  20.75 0.25 0  21 0.25 0  21.25 0.25 0  21.5 0.25 0  21.75 0.25 0  22 0.25 0  22.25 0.25 0  22.5 0.25 0  22.75 0.25 0  23 0.25 0  23.25 0.25 0  23.5 0.25 0  23.75 0.25 0  24 0.25 0  24.25 0.25 0  24.5 0.25 0  24.75 0.25 0  25 0.25 0  0 0.5 0  0.25 0.5 0  0.5 0.5 0  0.75 0.5 0  1 0.5 0  1.25 0.5 0  1.5 0.5 0  1.75 0.5 0  2 0.5 0  2.25 0.5 0  2.5 0.5 0  2.75 0.5 0  3 0.5 0  3.25 0.5 0  3.5 0.5 0  3.75 0.5 0  4 0.5 0  4.25 0.5 0  4.5 0.5 0  4.75 0.5 0  5 0.5 0  5.25 0.5 0  5.5 0.5 0  5.75 0.5 0  6 0.5 0  6.25 0.5 0  6.5 0.5 0  6.75 0.5 0  7 0.5 0  7.25 0.5 0  7.5 0.5 0  7.75 0.5 0  8 0.5 0  8.25 0.5 0  8.5 0.5 0  8.75 0.5 0  9 0.5 0  9.25 0.5 0  9.5 0.5 0  9.75 0.5 0  10 0.5 0  10.25 0.5 0  10.5 0.5 0  10.75 0.5 0  11 0.5 0  11.25 0.5 0  11.5 0.5 0  11.75 0.5 0  12 0.5 0  12.25 0.5 0  12.5 0.5 0  12.75 0.5 0  13 0.5 0  13.25 0.5 0  13.5 0.5 0  13.75 0.5 0  14 0.5 0  14.25 0.5 0  14.5 0.5 0  14.75 0.5 0  15 0.5 0  15.25 0.5 0  15.5 0.5 0  15.75 0.5 0  16 0.5 0  16.25 0.5 0  16.5 0.5 0  16.75 0.5 0  17 0.5 0  17.25 0.5 0  17.5 0.5 0  17.75 0.5 0  18 0.5 0  18.25 0.5 0  18.5 0.5 0  18.75 0.5 0  19 0.5 0  19.25 0.5 0  19.5 0.5 0  19.75 0.5 0  20 0.5 0  20.25 0.5 0  20.5 0.5 0  20.75 0.5 0  21 0.5 0  21.25 0.5 0  21.5 0.5 0  21.75 0.5 0  22 0.5 0  22.25 0.5 0  22.5 0.5 0  22.75 0.5 0  23 0.5 0  23.25 0.5 0  23.5 0.5 0  23.75 0.5 0  24 0.5 0  24.25 0.5 0  24.5 0.5 0  24.75 0.5 0  25 0.5 0  0 0.75 0  0.25 0.75 0  0.5 0.75 0  0.75 0.75 0  1 0.75 0  1.25 0.75 0  1.5 0.75 0  1.75 0.75 0  2 0.75 0  2.25 0.75 0  2.5 0.75 0  2.75 0.75 0  3 0.75 0  3.25 0.75 0  3.5 0.75 0  3.75 0.75 0  4 0.75 0  4.25 0.75 0  4.5 0.75 0  4.75 0.75 0  5 0.75 0  5.25 0.75 0  5.5 0.75 0  5.75 0.75 0  6 0.75 0  6.25 0.75 0  6.5 0.75 0  6.75 0.75 0  7 0.75 0  7.25 0.75 0  7.5 0.75 0  7.75 0.75 0  8 0.75 0  8.25 0.75 0  8.5 0.75 0  8.75 0.75 0  9 0.75 0  9.25 0.75 0  9.5 0.75 0  9.75 0.75 0  10 0.75 0  10.25 0.75 0  10.5 0.75 0  10.75 0.75 0  11 0.75 0  11.25 0.75 0  11.5 0.75 0  11.75 0.75 0  12 0.75 0  12.25 0.75 0  12.5 0.75 0  12.75 0.75 0  13 0.75 0  13.25 0.75 0  13.5 0.75 0  13.75 0.75 0  14 0.75 0  14.25 0.75 0  14.5 0.75 0  14.75 0.75 0  15 0.75 0  15.25 0.75 0  15.5 0.75 0  15.75 0.75 0  16 0.75 0  16.25 0.75 0  16.5 0.75 0  16.75 0.75 0  17 0.75 0  17.25 0.75 0  17.5 0.75 0  17.75 0.75 0  18 0.75 0  18.25 0.75 0  18.5 0.75 0  18.75 0.75 0  19 0.75 0  19.25 0.75 0  19.5 0.75 0  19.75 0.75 0  20 0.75 0  20.25 0.75 0  20.5 0.75 0  20.75 0.75 0  21 0.75 0  21.25 0.75 0  21.5 0.75 0  21.75 0.75 0  22 0.75 0  22.25 0.75 0  22.5 0.75 0  22.75 0.75 0  23 0.75 0  23.25 0.75 0  23.5 0.75 0  23.75 0.75 0  24 0.75 0  24.25 0.75 0  24.5 0.75 0  24.75 0.75 0  25 0.75 0  0 1 0  0.25 1 0  0.5 1 0  0.75 1 0  1 1 0  1.25 1 0  1.5 1 0  1.75 1 0  2 1 0  2.25 1 0  2.5 1 0  2.75 1 0  3 1 0  3.25 1 0  3.5 1 0  3.75 1 0  4 1 0  4.25 1 0  4.5 1 0  4.75 1 0  5 1 0  5.25 1 0  5.5 1 0  5.75 1 0  6 1 0  6.25 1 0  6.5 1 0  6.75 1 0  7 1 0  7.25 1 0  7.5 1 0  7.75 1 0  8 1 0  8.25 1 0  8.5 1 0  8.75 1 0  9 1 0  9.25 1 0  9.5 1 0  9.75 1 0  10 1 0  10.25 1 0  10.5 1 0  10.75 1 0  11 1 0  11.25 1 0  11.5 1 0  11.75 1 0  12 1 0  12.25 1 0  12.5 1 0  12.75 1 0  13 1 0  13.25 1 0  13.5 1 0  13.75 1 0  14 1 0  14.25 1 0  14.5 1 0  14.75 1 0  15 1 0  15.25 1 0  15.5 1 0  15.75 1 0  16 1 0  16.25 1 0  16.5 1 0  16.75 1 0  17 1 0  17.25 1 0  17.5 1 0  17.75 1 0  18 1 0  18.25 1 0  18.5 1 0  18.75 1 0  19 1 0  19.25 1 0  19.5 1 0  19.75 1 0  20 1 0  20.25 1 0  20.5 1 0  20.75 1 0  21 1 0  21.25 1 0  21.5 1 0  21.75 1 0  22 1 0  22.25 1 0  22.5 1 0  22.75 1 0  23 1 0  23.25 1 0  23.5 1 0  23.75 1 0  24 1 0  24.25 1 0  24.5 1 0  24.75 1 0  25 1 0  0 1.25 0  0.25 1.25 0  0.5 1.25 0  0.75 1.25 0  1 1.25 0  1.25 1.25 0  1.5 1.25 0  1.75 1.25 0  2 1.25 0  2.25 1.25 0  2.5 1.25 0  2.75 1.25 0  3 1.25 0  3.25 1.25 0  3.5 1.25 0  3.75 1.25 0  4 1.25 0  4.25 1.25 0  4.5 1.25 0  4.75 1.25 0  5 1.25 0  5.25 1.25 0  5.5 1.25 0  5.75 1.25 0  6 1.25 0  6.25 1.25 0  6.5 1.25 0  6.75 1.25 0  7 1.25 0  7.25 1.25 0  7.5 1.25 0  7.75 1.25 0  8 1.25 0  8.25 1.25 0  8.5 1.25 0  8.75 1.25 0  9 1.25 0  9.25 1.25 0  9.5 1.25 0  9.75 1.25 0  10 1.25 0  10.25 1.25 0  10.5 1.25 0  10.75 1.25 0  11 1.25 0  11.25 1.25 0  11.5 1.25 0  11.75 1.25 0  12 1.25 0  12.25 1.25 0  12.5 1.25 0  12.75 1.25 0  13 1.25 0  13.25 1.25 0  13.5 1.25 0  13.75 1.25 0  14 1.25 0  14.25 1.25 0  14.5 1.25 0  14.75 1.25 0  15 1.25 0  15.25 1.25 0  15.5 1.25 0  15.75 1.25 0  16 1.25 0  16.25 1.25 0  16.5 1.25 0  16.75 1.25 0  17 1.25 0  17.25 1.25 0  17.5 1.25 0  17.75 1.25 0  18 1.25 0  18.25 1.25 0  18.5 1.25 0  18.75 1.25 0  19 1.25 0  19.25 1.25 0  19.5 1.25 0  19.75 1.25 0  20 1.25 0  20.25 1.25 0  20.5 1.25 0  20.75 1.25 0  21 1.25 0  21.25 1.25 0  21.5 1.25 0  21.75 1.25 0  22 1.25 0  22.25 1.25 0  22.5 1.25 0  22.75 1.25 0  23 1.25 0  23.25 1.25 0  23.5 1.25 0  23.75 1.25 0  24 1.25 0  24.25 1.25 0  24.5 1.25 0  24.75 1.25 0  25 1.25 0  0 1.5 0  0.25 1.5 0  0.5 1.5 0  0.75 1.5 0  1 1.5 0  1.25 1.5 0  1.5 1.5 0  1.75 1.5 0  2 1.5 0  2.25 1.5 0  2.5 1.5 0  2.75 1.5 0  3 1.5 0  3.25 1.5 0  3.5 1.5 0  3.75 1.5 0  4 1.5 0  4.25 1.5 0  4.5 1.5 0  4.75 1.5 0  5 1.5 0  5.25 1.5 0  5.5 1.5 0  5.75 1.5 0  6 1.5 0  6.25 1.5 0  6.5 1.5 0  6.75 1.5 0  7 1.5 0  7.25 1.5 0  7.5 1.5 0  7.75 1.5 0  8 1.5 0  8.25 1.5 0  8.5 1.5 0  8.75 1.5 0  9 1.5 0  9.25 1.5 0  9.5 1.5 0  9.75 1.5 0  10 1.5 0  10.25 1.5 0  10.5 1.5 0  10.75 1.5 0  11 1.5 0  11.25 1.5 0  11.5 1.5 0  11.75 1.5 0  12 1.5 0  12.25 1.5 0  12.5 1.5 0  12.75 1.5 0  13 1.5 0  13.25 1.5 0  13.5 1.5 0  13.75 1.5 0  14 1.5 0  14.25 1.5 0  14.5 1.5 0  14.75 1.5 0  15 1.5 0  15.25 1.5 0  15.5 1.5 0  15.75 1.5 0  16 1.5 0  16.25 1.5 0  16.5 1.5 0  16.75 1.5 0  17 1.5 0  17.25 1.5 0  17.5 1.5 0  17.75 1.5 0  18 1.5 0  18.25 1.5 0  18.5 1.5 0  18.75 1.5 0  19 1.5 0  19.25 1.5 0  19.5 1.5 0  19.75 1.5 0  20 1.5 0  20.25 1.5 0  20.5 1.5 0  20.75 1.5 0  21 1.5 0  21.25 1.5 0  21.5 1.5 0  21.75 1.5 0  22 1.5 0  22.25 1.5 0  22.5 1.5 0  22.75 1.5 0  23 1.5 0  23.25 1.5 0  23.5 1.5 0  23.75 1.5 0  24 1.5 0  24.25 1.5 0  24.5 1.5 0  24.75 1.5 0  25 1.5 0  0 1.75 0  0.25 1.75 0  0.5 1.75 0  0.75 1.75 0  1 1.75 0  1.25 1.75 0  1.5 1.75 0  1.75 1.75 0  2 1.75 0  2.25 1.75 0  2.5 1.75 0  2.75 1.75 0  3 1.75 0  3.25 1.75 0  3.5 1.75 0  3.75 1.75 0  4 1.75 0  4.25 1.75 0  4.5 1.75 0  4.75 1.75 0  5 1.75 0  5.25 1.75 0  5.5 1.75 0  5.75 1.75 0  6 1.75 0  6.25 1.75 0  6.5 1.75 0  6.75 1.75 0  7 1.75 0  7.25 1.75 0  7.5 1.75 0  7.75 1.75 0  8 1.75 0  8.25 1.75 0  8.5 1.75 0  8.75 1.75 0  9 1.75 0  9.25 1.75 0  9.5 1.75 0  9.75 1.75 0  10 1.75 0  10.25 1.75 0  10.5 1.75 0  10.75 1.75 0  11 1.75 0  11.25 1.75 0  11.5 1.75 0  11.75 1.75 0  12 1.75 0  12.25 1.75 0  12.5 1.75 0  12.75 1.75 0  13 1.75 0  13.25 1.75 0  13.5 1.75 0  13.75 1.75 0  14 1.75 0  14.25 1.75 0  14.5 1.75 0  14.75 1.75 0  15 1.75 0  15.25 1.75 0  15.5 1.75 0  15.75 1.75 0  16 1.75 0  16.25 1.75 0  16.5 1.75 0  16.75 1.75 0  17 1.75 0  17.25 1.75 0  17.5 1.75 0  17.75 1.75 0  18 1.75 0  18.25 1.75 0  18.5 1.75 0  18.75 1.75 0  19 1.75 0  19.25 1.75 0  19.5 1.75 0  19.75 1.75 0  20 1.75 0  20.25 1.75 0  20.5 1.75 0  20.75 1.75 0  21 1.75 0  21.25 1.75 0  21.5 1.75 0  21.75 1.75 0  22 1.75 0  22.25 1.75 0  22.5 1.75 0  22.75 1.75 0  23 1.75 0  23.25 1.75 0  23.5 1.75 0  23.75 1.75 0  24 1.75 0  24.25 1.75 0  24.5 1.75 0  24.75 1.75 0  25 1.75 0  0 2 0  0.25 2 0  0.5 2 0  0.75 2 0  1 2 0  1.25 2 0  1.5 2 0  1.75 2 0  2 2 0  2.25 2 0  2.5 2 0  2.75 2 0  3 2 0  3.25 2 0  3.5 2 0  3.75 2 0  4 2 0  4.25 2 0  4.5 2 0  4.75 2 0  5 2 0  5.25 2 0  5.5 2 0  5.75 2 0  6 2 0  6.25 2 0  6.5 2 0  6.75 2 0  7 2 0  7.25 2 0  7.5 2 0  7.75 2 0  8 2 0  8.25 2 0  8.5 2 0  8.75 2 0  9 2 0  9.25 2 0  9.5 2 0  9.75 2 0  10 2 0  10.25 2 0  10.5 2 0  10.75 2 0  11 2 0  11.25 2 0 
[...]
<PointData  Scalars="f_26"> 
<DataArray  type="Float64"  Name="f_26"  format="ascii">2.5919889209457338e-05  2.5909907991069568e-05  2.5888196896537476e-05  2.5852687327678316e-05  2.5801659357927777e-05  2.5733157447577171e-05  2.5644936768993404e-05  2.5534605344911692e-05  2.5399909753078398e-05  2.5239160165740381e-05  2.5051769298760258e-05  2.4838824477023198e-05  2.4603545538148358e-05  2.4351441204426263e-05  2.4089999863296578e-05  2.3827980219139388e-05  2.3575515300426573e-05  2.3347371760903845e-05  2.3170165910884921e-05  2.3068815628766888e-05  2.3027006119702345e-05  2.3015527236251930e-05  2.3020744790454435e-05  2.3035810873802795e-05  2.3056071682959794e-05  2.3078401414113200e-05  2.3101117114710878e-05  2.3123796091259726e-05  2.3146948283928000e-05  2.3171628295014393e-05  2.3199059276002160e-05  2.3230299298665458e-05  2.3265965485241619e-05  2.3306038564625814e-05  2.3349774906788482e-05  2.3395738396572218e-05  2.3441937123113848e-05  2.3486027601591800e-05  2.3525542893302486e-05  2.3558108661962539e-05  2.3581625326288292e-05  2.3594408523908788e-05  2.3595290282599848e-05  2.3583688185862488e-05  2.3559649889138601e-05  2.3523876946413569e-05  2.3477726228907196e-05  2.3423180120198009e-05  2.3362769515295076e-05  2.3299429286938735e-05  2.3236269311254327e-05  2.3176262091196222e-05  2.3121884113581903e-05  2.3074791658436196e-05  2.3035632503350922e-05  2.3004062665569764e-05  2.2978957064517680e-05  2.2958723653552066e-05  2.2941605077378148e-05  2.2925886771621389e-05  2.2909987747938851e-05  2.2892446881937244e-05  2.2871835416812502e-05  2.2846575310763711e-05  2.2814741704860638e-05  2.2773355447778108e-05  2.2718382543429088e-05  2.2639269223599887e-05  2.2525251347532921e-05  2.2309379588255799e-05  2.2069587825857832e-05  2.2137761196289264e-05  2.2384499807136621e-05  2.2683885158776106e-05  2.3003917354271691e-05  2.3328440144556148e-05  2.3642993320437105e-05  2.3934988359014407e-05  2.4195458980843988e-05  2.4419826722210602e-05  2.4607502460234285e-05  2.4760814749587014e-05  2.4883785364460574e-05  2.4981096498080817e-05  2.5057381419812862e-05  2.5116824021055036e-05  2.5162989145667030e-05  2.5198798185086014e-05  2.5226582081682068e-05  2.5248166606172878e-05  2.5264963703431381e-05  2.5278055722067511e-05  2.5288267238253166e-05  2.5296223471699221e-05  2.5302396332076058e-05  2.5307139896584927e-05  2.5310717207562179e-05  2.5313320009947563e-05  2.5315082453461089e-05  2.5316088247139908e-05  2.5316364958370948e-05  2.5903213461704512e-05  2.5895459458577204e-05  2.5874022763849626e-05  2.5838225122917526e-05  2.5786666005291000e-05  2.5717487239526172e-05  2.5628501331380458e-05  2.5517377026316214e-05  2.5381936115145896e-05  2.5220578152784930e-05  2.5032811025419312e-05  2.4819807582323210e-05  2.4584843700814433e-05  2.4333434136161843e-05  2.4073007762342155e-05  2.3812245307984316e-05  2.3561230506465000e-05  2.3334489972958769e-05  2.3158325928275021e-05  2.3058958664982381e-05  2.3020491410460894e-05  2.3011272609811139e-05  2.3018018663411246e-05  2.3034157236272434e-05  2.3055103215700244e-05  2.3077830213997910e-05  2.3100756478643814e-05  2.3123547156601371e-05  2.3146776706594130e-05  2.3171539961095004e-05  2.3199080859477960e-05  2.3230465672813633e-05  2.3266313408947463e-05  2.3306604604938123e-05  2.3350595123735311e-05  2.3396847823619206e-05  2.3443368155783459e-05  2.3487807429432844e-05  2.3527690644340248e-05  2.3560632944193756e-05  2.3584522548367352e-05  2.3597661991787167e-05  2.3598869785950664e-05  2.3587549708932619e-05  2.3563735221965263e-05  2.3528113297176388e-05  2.3482026373544289e-05  2.3427444042452362e-05  2.3366888689451079e-05  2.3303294508199864e-05  2.3239782099319236e-05  2.3179348107819056e-05  2.3124505041834563e-05  2.3076950733558179e-05  2.3037370069038293e-05  2.3005442255986692e-05  2.2980047278605551e-05  2.2959582715115874e-05  2.2942272193893254e-05  2.2926380196898761e-05  2.2910306549971519e-05  2.2892574660953318e-05  2.2871740104773113e-05  2.2846219189628116e-05  2.2814047720055001e-05  2.2772332565508154e-05  2.2716682552802609e-05  2.2637838988910911e-05  2.2521637292230666e-05  2.2314425685914192e-05  2.2082828630183054e-05  2.2142498143062250e-05  2.2386774481672651e-05  2.2685655608952642e-05  2.3005342132553809e-05  2.3329573411454905e-05  2.3643990402094870e-05  2.3935948011000451e-05  2.4196407674064100e-05  2.4420746445862535e-05  2.4608357561889181e-05  2.4761572544850620e-05  2.4884426637950745e-05  2.4981617068552892e-05  2.5057788693916875e-05  2.5117132146252657e-05  2.5163214830225078e-05  2.5198957880114059e-05  2.5226690447230275e-05  2.5248235905379788e-05  2.5265003759292864e-05  2.5278074160711383e-05  2.5288269842650926e-05  2.5296214548525721e-05  2.5302379048205048e-05  2.5307116579287290e-05  2.5310689644695714e-05  2.5313289898360356e-05  2.5315052601369855e-05  2.5316067254541898e-05  2.5316388463350242e-05  2.5860810768393970e-05  2.5853303303691470e-05  2.5831474423120378e-05  2.5794662034684449e-05  2.5741583644837151e-05  2.5670487746749202e-05  2.5579304010844981e-05  2.5465852915523559e-05  2.5328156115315722e-05  2.5164861816471989e-05  2.4975759215868878e-05  2.4762299490684163e-05  2.4527981558547902e-05  2.4278428118360519e-05  2.4021009229294499e-05  2.3764277987439754e-05  2.3518380866973801e-05  2.3298534251830207e-05  2.3132220571404069e-05  2.3043177795763920e-05  2.3010783953501787e-05  2.3004711001621597e-05  2.3013622520011734e-05  2.3031207837776192e-05  2.3053057306311773e-05  2.3076324155731043e-05  2.3099578904220524e-05  2.3122605639100770e-05  2.3146061986943070e-05  2.3171097549333868e-05  2.3198991152596490e-05  2.3230830466271841e-05  2.3267246106892453e-05  2.3308222202067233e-05  2.3353010937492711e-05  2.3400164596107590e-05  2.3447671605331489e-05  2.3493160644695961e-05  2.3534129737466608e-05  2.3568164083541502e-05  2.3593120096201222e-05  2.3607267247775670e-05  2.3609389886580724e-05  2.3598856495923101e-05  2.3575664272927182e-05  2.3540463761626166e-05  2.3494562750411919e-05  2.3439901463628530e-05  2.3378983383303470e-05  2.3314740588396839e-05  2.3250314493966486e-05  2.3188749430590738e-05  2.3132631762472378e-05  2.3083751615639182e-05  2.3042889138261316e-05  2.3009802176538935e-05  2.2983417001800501e-05  2.2962140378371011e-05  2.2944174748797124e-05  2.2927745618203910e-05  2.2911207944054070e-05  2.2893041949157289e-05  2.2871764907791737e-05  2.2845757266267100e-05  2.2813026358159419e-05  2.2770616526810406e-05  2.2714169704635445e-05  2.2634071978211142e-05  2.2516731835664124e-05  2.2307299857396608e-05  2.2083485250933424e-05  2.2148571165297264e-05  2.2393469806715490e-05  2.2692143395962888e-05  2.3011379606202463e-05  2.3334996446076578e-05  2.3648718593570832e-05  2.3939959073944911e-05  2.4199721391863163e-05  2.4423413348980003e-05  2.4610448478817742e-05  2.4763168893765926e-05  2.4885612113085753e-05  2.4982471239194343e-05  2.5058382779472455e-05  2.5117526872735297e-05  2.5163459964657941e-05  2.5199092901360020e-05  2.5226745839435987e-05  2.5248234679882541e-05  2.5264962950620058e-05  2.5278006160701368e-05  2.5288183520319823e-05  2.5296116155035924e-05  2.5302272935781255e-05  2.5307005781913163e-05  2.5310576390879226e-05  2.5313176170017891e-05  2.5314940917384864e-05  2.5315961688974583e-05  2.5316293313383296e-05  2.5789238197513827e-05  2.5781436344361589e-05  2.5758615698487196e-05  2.5720051719612582e-05  2.5664521242674850e-05  2.5590392587186596e-05  2.5495772759436849e-05  2.5378730352593697e-05  2.5237615963596575e-05  2.5071482626762988e-05  2.4880570792494625e-05  2.4666770334507175e-05  2.4433921834584125e-05  2.4187793423391465e-05  2.3935649880494532e-05  2.3685930621782480e-05  2.3449088684343589e-05  2.3242077808270886e-05  2.3094139219241186e-05  2.3021981810212881e-05  2.2998074610875074e-05  2.2996490034578546e-05  2.3008282532417486e-05  2.3027586122862557e-05  2.3050398839922289e-05  2.3074176617773717e-05  2.3097725263454496e-05  2.3120991838006720e-05  2.3144736789178934e-05  2.3170172897520353e-05  2.3198618817246123e-05  2.3231187700590471e-05  2.3268524349296043e-05  2.3310616034501052e-05  2.3356706844098760e-05  2.3405330021028829e-05  2.3454445005615042e-05  2.3501643235213151e-05  2.3544379416251933e-05  2.3580191516134970e-05  2.3606886371833638e-05  2.3622682253522661e-05  2.3626310694933011e-05  2.3617085499876084e-05  2.3594947370876034e-05  2.3560489539186069e-05  2.3514964333626850e-05  2.3460263417908382e-05  2.3398856343301990e-05  2.3333665689645546e-05  2.3267857769587434e-05  2.3204543282009153e-05  2.3146416938457167e-05  2.3095409500616476e-05  2.3052452372517693e-05  2.3017435498267484e-05  2.2989371324696441e-05  2.2966695182072596e-05  2.2947587151443129e-05  2.2930217341907213e-05  2.2912870812091571e-05  2.2893956231228818e-05  2.2871921492685450e-05  2.2845080948019743e-05  2.2811360917494051e-05  2.2767723596122596e-05  2.2709621628673228e-05  2.2627252854975716e-05  2.2506525378192761e-05  2.2292428937769641e-05  2.2081187150635596e-05  2.2157638465431364e-05  2.2404571020773889e-05  2.2703171379276184e-05  2.3021780046581366e-05  2.3344413964243627e-05  2.3656914750780320e-05  2.3946822562696766e-05  2.4205264336911470e-05  2.4427741325061062e-05  2.4613722378477477e-05  2.4765570270196527e-05  2.4887318059407724e-05  2.4983639708048247e-05  2.5059146315606171e-05  2.5117991907973425e-05  2.5163709177545440e-05  2.5199188879051478e-05  2.5226734975016048e-05  2.5248150751088797e-05  2.5264830152594084e-05  2.5277841550374497e-05  2.5287998922049177e-05  2.5295919614393100e-05  2.5302069816951610e-05  2.5306799599992051e-05  2.5310369461095886e-05  2.5312970136509162e-05  2.5314737153075148e-05  2.5315761288582898e-05  2.5316095648754084e-05  2.5684810195395931e-05  2.5676532504431601e-05  2.5652300676800343e-05  2.5611388988244819e-05  2.5552660800252436e-05  2.5474652574449441e-05  2.5375727553907969e-05  2.5254310526107383e-05  2.5109212591565865e-05  2.4940035219650413e-05  2.4747606978977590e-05  2.4534361028075341e-05  2.4304520361344210e-05  2.4063946267292147e-05  2.3819766123815484e-05  2.3580432997745719e-05  2.3357282287116940e-05  2.3170447799739513e-05  2.3049550997850471e-05  2.2998049798901882e-05  2.2983537720068040e-05  2.2987286273431205e-05  2.3002355114258824e-05  2.3023484058432060e-05  2.3047211692094523e-05  2.3071391089814613e-05  2.3095132229907655e-05  2.3118581716474176e-05  2.3142620751094769e-05  2.3168533045835277e-05  2.3197680488898942e-05  2.3231203251626672e-05  2.3269760311184617e-05  2.3313340072046991e-05  2.3361174090229183e-05  2.3411769543652695e-05  2.3463047354842265e-05  2.3512550035842056e-05  2.3557675730409583e-05  2.3595901015464245e-05  2.3624968558116722e-05  2.3643030560944712e-05  2.3648750468898052e-05  2.3641371396354967e-05  2.3620760427334359e-05  2.3587434968150023e-05  2.3542572037337230e-05  2.3487994257401681e-05  2.3426117919289983e-05  2.3359841060848338e-05  2.3292348391781922e-05  2.3226823339799063e-05  2.3166090966900172e-05  2.3112260195334037e-05  2.3066462847968647e-05  2.3028773718243527e-05  2.2998336915219897e-05  2.2973645091558335e-05  2.2952864291542845e-05  2.2934099826410106e-05  2.2915545804084075e-05  2.2895512236691920e-05  2.2872347860857670e-05  2.2844268271474690e-05  2.2809081055531385e-05  2.2763619314800691e-05  2.2703061409761973e-05  2.2617387498367805e-05  2.2491550398268339e-05  2.2272277606608978e-05  2.2078952262022827e-05  2.2170174772645957e-05  2.2419846742573027e-05  2.2718385627999407e-05  2.3036144711007535e-05  2.3357416537754016e-05  2.3668198095093031e-05  2.3956212747328952e-05  2.4212774315926815e-05  2.4433527715915211e-05  2.4618025895466568e-05  2.4768660952687266e-05  2.4889456128800632e-05  2.4985053609286751e-05  2.5060024327784691e-05  2.5118482366443882e-05  2.5163925106500424e-05  2.5199214209251290e-05  2.5226630750452789e-05  2.5247960581453210e-05  2.5264584673267016e-05  2.5277561911021109e-05  2.5287699435586194e-05  2.5295609728766511e-05  2.5301755564718068e-05  2.5306484657642044e-05  2.5310055920413563e-05  2.5312659051767615e-05  2.5314428866610182e-05  2.5315455441107337e-05  2.5315790748070908e-05  2.5543459954463174e-05  2.5534669225248863e-05  2.5508799633336536e-05  2.5465189047774452e-05  2.5402848644171607e-05  2.5320558899369146e-05  2.5217036091843245e-05  2.5091175979698090e-05  2.4942372586703534e-05  2.4770888687437345e-05  2.4578221597054773e-05  2.4367369295750564e-05  2.4142868393581816e-05  2.3910575969635599e-05  2.3677571836402273e-05  2.3452654722210514e-05  2.3249347425510304e-05  2.3092207323578036e-05  2.3005321101610298e-05  2.2974148682333590e-05  2.2968791614928435e-05  2.2978180502270787e-05  2.2996468357676896e-05  2.3019223691669152e-05  2.3043609772582050e-05  2.3067948977049863e-05  2.3091691661335346e-05  2.3115198972190583e-05  2.3139478207064733e-05  2.3165884818144313e-05  2.3195823281361575e-05  2.3230459539737199e-05  2.3270464927037335e-05  2.3315826411843701e-05  2.3365759483179391e-05  2.3418740444137605e-05  2.3472645291602415e-05  2.3524959517056000e-05  2.3573015203660741e-05  2.3614217159836118e-05  2.3646233099613969e-05  2.3667138181818539e-05  2.3675516490079434e-05  2.3670528519043223e-05  2.3651954609467403e-05  2.3620221391491319e-05  2.3576413204524825e-05  2.3522263590844203e-05  2.3460113480954457e-05  2.3392814319854060e-05  2.3323551146603325e-05  2.3255571147920154e-05  2.3191834458277503e-05  2.3134648959329670e-05  2.3085383120728098e-05  2.3044343752838231e-05  2.3010855719561591e-05  2.2983508685356136e-05  2.2960476590057180e-05  2.2939802430362084e-05  2.2919576363719005e-05  2.2897987052109915e-05  2.2873256198790084e-05  2.2843469654750398e-05  2.2806279214931576e-05  2.2758353477337178e-05  2.2694508977428312e-05  2.2604568498313060e-05  2.2472067398578974e-05  2.2248628398262280e-05  2.2078425730198535e-05  2.2186207321457396e-05  2.2438885026521966e-05  2.2737278524077746e-05  2.3053933107437781e-05  2.3373465944477657e-05  2.3682064452851382e-05  2.3967684125003568e-05  2.4221876340941197e-05  2.4440468263177318e-05  2.4623118126040665e-05  2.4772252635033488e-05  2.4891879533936340e-05  2.4986597929107717e-05  2.5060925734093078e-05  2.5118925107070293e-05  2.5164048098149058e-05  2.5199119450982055e-05  2.5226391525706494e-05  2.5247628541525577e-05  2.5264195547677237e-05  2.5277139914651786e-05  2.5287260571962265e-05  2.5295164216160890e-05  2.5301309592440548e-05  2.5306041643240683e-05  2.5309617397660599e-05  2.5312225278056291e-05  2.5313999198348817e-05  2.5315028501073989e-05  2.5315364459793472e-05  2.5361444219363889e-05  2.5352212097800701e-05  2.5324708670894591e-05  2.5278399521075288e-05  2.5212519096582212e-05  2.5126181244374845e-05  2.5018556663682970e-05  2.4889116393395805e-05  2.4737928414704772e-05  2.4565972917099084e-05  2.4375411495786165e-05  2.4169711412163220e-05  2.3953575266166113e-05  2.3732893031037332e-05  2.3514939470889252e-05  2.3309807788109481e-05  2.3135450449205989e-05  2.3018773824562627e-05  2.2966991625915157e-05  2.2952353936989319e-05  2.2955523141404555e-05  2.2970149640291110e-05  2.2991111739377920e-05  2.3014999409760767e-05  2.3039611702661428e-05  2.3063766621103295e-05  2.3087252561433058e-05  2.3110638915465917e-05  2.3135052271985939e-05  2.3161914376990490e-05  2.3192668226495016e-05  2.3228502276537391e-05  2.3270097523867819e-05  2.3317437374020828e-05  2.3369719581020437e-05  2.3425387847962822e-05  2.3482270691271240e-05  2.3537792637726297e-05  2.3589214347139610e-05  2.3633862490284429e-05  2.3669322967207879e-05  2.3693586858831664e-05  2.3705151682766886e-05  2.3703087639789960e-05  2.3687079622958765e-05  2.3657452935895774e-05  2.3615185794799234e-05  2.3561905218972670e-05  2.3499854657574461e-05  2.3431812743837857e-05  2.3360937260075161e-05  2.3290515229356858e-05  2.3223627614270458e-05  2.3162781600230615e-05  2.3109599848360872e-05  2.3064655541404029e-05  2.3027500234738020e-05  2.2996867424041918e-05  2.2970974638599196e-05  2.2947819957550092e-05  2.2925388661546325e-05  2.2901733257565794e-05  2.2874925210728711e-05  2.2842891785478931e-05  2.2803097272096101e-05  2.2752010608857683e-05  2.2684034544458302e-05  2.2588907045913220e-05  2.2448508452412395e-05  2.2223471058789405e-05  2.2080758260892235e-05  2.2205501458263699e-05  2.2461114834826151e-05  2.2759196922679860e-05  2.3074466020020936e-05  2.3391893614077273e-05  2.3697887879815291e-05  2.3980678443359656e-05  2.4232093104023698e-05  2.4448168352238834e-05  2.4628680626816272e-05  2.4776092161588716e-05  2.4894388339630204e-05  2.4988114676718454e-05  2.5061724913389850e-05  2.5119219208655545e-05  2.5163996001268602e-05  2.5198836728677283e-05  2.5225960325318327e-05  2.5247106023938277e-05  2.5263620629132727e-05  2.5276538426314188e-05  2.5286649094630514e-05  2.5294552871238844e-05  2.5300704041306142e-05  2.5305444500368010e-05  2.5309029214595967e-05  2.5311645212563291e-05  2.5313425450282107e-05  2.5314458582786706e-05  2.5314795390271694e-05  2.5136552332694722e-05  2.5127051651959279e-05  2.5098195349904851e-05  2.5049639527304700e-05  2.4980916747359830e-05  2.4891557538289417e-05  2.4781269844764750e-05  2.4650166959631849e-05  2.4499020841212095e-05  2.4329495760871497e-05  2.4144290759459472e-05  2.3947169412734634e-05  2.3743006515338341e-05  2.3537922716241340e-05  2.3340100708858337e-05  2.3163243214562905e-05  2.3030686818233086e-05  2.2960481346701715e-05  2.2936594680266658e-05  2.2934349775661760e-05  2.2945072810483213e-05  2.2963789302003426e-05  2.2986528642067021e-05  2.3010846572674323e-05  2.3035146481519923e-05  2.3058717769519946e-05  2.3081652801237371e-05  2.3104705601239046e-05  2.3129105733655380e-05  2.3156331156051958e-05  2.3187856946499354e-05  2.3224889779808101e-05  2.3268117767477741e-05  2.3317520099759837e-05  2.3372277957994589e-05  2.3430804631980054e-05  2.3490883097837339e-05  2.3549877539932120e-05  2.3604976134750812e-05  2.3653424990248941e-05  2.3692725005789016e-05  2.3720779729369660e-05  2.3735996575779069e-05  2.3737351690684380e-05  2.3724430082391425e-05  2.3697449818022637e-05  2.3657274382124884e-05  2.3605411317744569e-05  2.3543987531416201e-05  2.3475682581050331e-05  2.3403594332909086e-05  2.3331014352510453e-05  2.3261112893244953e-05  2.3196575609153664e-05  2.3139274679201574e-05  2.3090064385161103e-05  2.3048756554942328e-05  2.3014273885406183e-05  2.2984922068953419e-05  2.2958686202530713e-05  2.2933460557535711e-05  2.2907158500439061e-05  2.2877686388734361e-05  2.2842789967289041e-05  2.2799722409891493e-05  2.2744724068973020e-05  2.2671782386796724e-05  2.2570620146245190e-05  2.2421699417705915e-05  2.2198977212760754e-05  2.2086643378137006e-05  2.2227596488153612e-05  2.2485814105248532e-05  2.2783346463832482e-05  2.3096929575413156e-05  2.3411904721561411e-05  2.3714926532320471e-05  2.3994532778226692e-05  2.4242854284506656e-05  2.4456152152168646e-05  2.4634325279753601e-05  2.4779867547160275e-05  2.4896733555303476e-05  2.4989405281232501e-05  2.5062262774841188e-05  2.5119236090253800e-05  2.5163663659686207e-05  2.5198278841281325e-05  2.5225263733490193e-05  2.5246330235009753e-05  2.5262805344919533e-05  2.5275709262299196e-05  2.5285821799343032e-05  2.5293736372855721e-05  2.5299902610471689e-05  2.5304659262980846e-05  2.5308259193916603e-05  2.5310888034124778e-05  2.5312677809288125e-05  2.5313716554734032e-05  2.5314054661909844e-05  2.4869595855410357e-05  2.4860077160438774e-05  2.4830445557447875e-05  2.4780597437073232e-05  2.4710417538156972e-05  2.4619904745211038e-05  2.4509339045279172e-05  2.4379473054734875e-05  2.4231713535892256e-05  2.4068252561512937e-05  2.3892169324180088e-05  2.3707540785589366e-05  2.3519574684656118e-05  2.3335246406694249e-05  2.3165883953914493e-05  2.3031134451479267e-05  2.2951183989252227e-05  2.2920120833211998e-05  2.2914056114538513e-05  2.2921536764573937e-05  2.2937967159001229e-05  2.2959203761827471e