<?xml version="1.0"?>
<VTKFile type="UnstructuredGrid"  version="0.1"  >
<UnstructuredGrid>
<Piece  NumberOfPoints="10201" NumberOfCells="20000">
<Points>
<DataArray  type="Float64"  NumberOfComponents="3"  format="ascii">0 0 0  0.25 0 0  0.5 0 0  0.75 0 0  1 0 0  1.25 0 0  1.5 0 0  1.75 0 0  2 0 0  2.25 0 0  2.5 0 0  2.75 0 0  3 0 0  3.25 0 0  3.5 0 0  3.75 0 0  4 0 0  4.25 0 0  4.5 0 0  4.75 0 0  5 0 0  5.25 0 0  5.5 0 0  5.75 0 0  6 0 0  6.25 0 0  6.5 0 0  6.75 0 0  7 0 0  7.25 0 0  7.5 0 0  7.75 0 0  8 0 0  8.25 0 0  8.5 0 0  8.75 0 0  9 0 0  9.25 0 0  9.5 0 0  9.75 0 0  10 0 0  10.25 0 0  10.5 0 0  10.75 0 0  11 0 0  11.25 0 0  11.5 0 0  11.75 0 0  12 0 0  12.25 0 0  12.5 0 0  12.75 0 0  13 0 0  13.25 0 0  13.5 0 0  13.75 0 0  14 0 0  14.25 0 0  14.5 0 0  14.75 0 0  15 0 0  15.25 0 0  15.5 0 0  15.75 0 0  16 0 0  16.25 0 0  16.5 0 0  16.75 0 0  17 0 0  17.25 0 0  17.5 0 0  17.75 0 0  18 0 0  18.25 0 0  18.5 0 0  18.75 0 0  19 0 0  19.25 0 0  19.5 0 0  19.75 0 0  20 0 0  20.25 0 0  20.5 0 0  20.75 0 0  21 0 0  21.25 0 0  21.5 0 0  21.75 0 0  22 0 0  22.25 0 0  22.5 0 0  22.75 0 0  23 0 0  23.25 0 0  23.5 0 0  23.75 0 0  24 0 0  24.25 0 0  24.5 0 0  24.75 0 0  25 0 0  0 0.25 0  0.25 0.25 0  0.5 0.25 0  0.75 0.25 0  1 0.25 0  1.25 0.25 0  1.5 0.25 0  1.75 0.25 0  2 0.25 0  2.25 0.25 0  2.5 0.25 0  2.75 0.25 0  3 0.25 0  3.25 0.25 0  3.5 0.25 0  3.75 0.25 0  4 0.25 0  4.25 0.25 0  4.5 0.25 0  4.75 0.25 0  5 0.25 0  5.25 0.25 0  5.5 0.25 0  5.75 0.25 0  6 0.25 0  6.25 0.25 0  6.5 0.25 0  6.75 0.25 0  7 0.25 0  7.25 0.25 0  7.5 0.25 0  7.75 0.25 0  8 0.25 0  8.25 0.25 0  8.5 0.25 0  8.75 0.25 0  9 0.25 0  9.25 0.25 0  9.5 0.25 0  9.75 0.25 0  10 0.25 0  10.25 0.25 0  10.5 0.25 0  10.75 0.25 0  11 0.25 0  11.25 0.25 0  11.5 0.25 0  11.75 0.25 0  12 0.25 0  12.25 0.25 0  12.5 0.25 0  12.75 0.25 0  13 0.25 0  13.25 0.25 0  13.5 0.25 0  13.75 0.25 0  14 0.25 0  14.25 0.25 0  14.5 0.25 0  14.75 0.25 0  15 0.25 0  15.25 0.25 0  15.5 0.25 0  15.75 0.25 0  16 0.25 0  16.25 0.25 0  16.5 0.25 0  16.75 0.25 0  17 0.25 0  17.25 0.25 0  17.5 0.25 0  17.75 0.25 0  18 0.25 0  18.25 0.25 0  18.5 0.25 0  18.75 0.25 0  19 0.25 0  19.25 0.25 0  19.5 0.25 0  19.75 0.25 0  20 0.25 0  20.25 0.25 0  20.5 0.25 0  20.75 0.25 0  21 0.25 0  21.25 0.25 0  21.5 0.25 0  21.75 0.25 0  22 0.25 0  22.25 0.25 0  22.5 0.25 0  22.75 0.25 0  23 0.25 0  23.25 0.25 0  23.5 0.25 0  23.75 0.25 0  24 0.25 0  24.25 0.25 0  24.5 0.25 0  24.75 0.25 0  25 0.25 0  0 0.5 0  0.25 0.5 0  0.5 0.5 0  0.75 0.5 0  1 0.5 0  1.25 0.5 0  1.5 0.5 0  1.75 0.5 0  2 0.5 0  2.25 0.5 0  2.5 0.5 0  2.75 0.5 0  3 0.5 0  3.25 0.5 0  3.5 0.5 0  3.75 0.5 0  4 0.5 0  4.25 0.5 0  4.5 0.5 0  4.75 0.5 0  5 0.5 0  5.25 0.5 0  5.5 0.5 0  5.75 0.5 0  6 0.5 0  6.25 0.5 0  6.5 0.5 0  6.75 0.5 0  7 0.5 0  7.25 0.5 0  7.5 0.5 0  7.75 0.5 0  8 0.5 0  8.25 0.5 0  8.5 0.5 0  8.75 0.5 0  9 0.5 0  9.25 0.5 0  9.5 0.5 0  9.75 0.5 0  10 0.5 0  10.25 0.5 0  10.5 0.5 0  10.75 0.5 0  11 0.5 0  11.25 0.5 0  11.5 0.5 0  11.75 0.5 0  12 0.5 0  12.25 0.5 0  12.5 0.5 0  12.75 0.5 0  13 0.5 0  13.25 0.5 0  13.5 0.5 0  13.75 0.5 0  14 0.5 0  14.25 0.5 0  14.5 0.5 0  14.75 0.5 0  15 0.5 0  15.25 0.5 0  15.5 0.5 0  15.75 0.5 0  16 0.5 0  16.25 0.5 0  16.5 0.5 0  16.75 0.5 0  17 0.5 0  17.25 0.5 0  17.5 0.5 0  17.75 0.5 0  18 0.5 0  18.25 0.5 0  18.5 0.5 0  18.75 0.5 0  19 0.5 0  19.25 0.5 0  19.5 0.5 0  19.75 0.5 0  20 0.5 0  20.25 0.5 0  20.5 0.5 0  20.75 0.5 0  21 0.5 0  21.25 0.5 0  21.5 0.5 0  21.75 0.5 0  22 0.5 0  22.25 0.5 0  22.5 0.5 0  22.75 0.5 0  23 0.5 0  23.25 0.5 0  23.5 0.5 0  23.75 0.5 0  24 0.5 0  24.25 0.5 0  24.5 0.5 0  24.75 0.5 0  25 0.5 0  0 0.75 0  0.25 0.75 0  0.5 0.75 0  0.75 0.75 0  1 0.75 0  1.25 0.75 0  1.5 0.75 0  1.75 0.75 0  2 0.75 0  2.25 0.75 0  2.5 0.75 0  2.75 0.75 0  3 0.75 0  3.25 0.75 0  3.5 0.75 0  3.75 0.75 0  4 0.75 0  4.25 0.75 0  4.5 0.75 0  4.75 0.75 0  5 0.75 0  5.25 0.75 0  5.5 0.75 0  5.75 0.75 0  6 0.75 0  6.25 0.75 0  6.5 0.75 0  6.75 0.75 0  7 0.75 0  7.25 0.75 0  7.5 0.75 0  7.75 0.75 0  8 0.75 0  8.25 0.75 0  8.5 0.75 0  8.75 0.75 0  9 0.75 0  9.25 0.75 0  9.5 0.75 0  9.75 0.75 0  10 0.75 0  10.25 0.75 0  10.5 0.75 0  10.75 0.75 0  11 0.75 0  11.25 0.75 0  11.5 0.75 0  11.75 0.75 0  12 0.75 0  12.25 0.75 0  12.5 0.75 0  12.75 0.75 0  13 0.75 0  13.25 0.75 0  13.5 0.75 0  13.75 0.75 0  14 0.75 0  14.25 0.75 0  14.5 0.75 0  14.75 0.75 0  15 0.75 0  15.25 0.75 0  15.5 0.75 0  15.75 0.75 0  16 0.75 0  16.25 0.75 0  16.5 0.75 0  16.75 0.75 0  17 0.75 0  17.25 0.75 0  17.5 0.75 0  17.75 0.75 0  18 0.75 0  18.25 0.75 0  18.5 0.75 0  18.75 0.75 0  19 0.75 0  19.25 0.75 0  19.5 0.75 0  19.75 0.75 0  20 0.75 0  20.25 0.75 0  20.5 0.75 0  20.75 0.75 0  21 0.75 0  21.25 0.75 0  21.5 0.75 0  21.75 0.75 0  22 0.75 0  22.25 0.75 0  22.5 0.75 0  22.75 0.75 0  23 0.75 0  23.25 0.75 0  23.5 0.75 0  23.75 0.75 0  24 0.75 0  24.25 0.75 0  24.5 0.75 0  24.75 0.75 0  25 0.75 0  0 1 0  0.25 1 0  0.5 1 0  0.75 1 0  1 1 0  1.25 1 0  1.5 1 0  1.75 1 0  2 1 0  2.25 1 0  2.5 1 0  2.75 1 0  3 1 0  3.25 1 0  3.5 1 0  3.75 1 0  4 1 0  4.25 1 0  4.5 1 0  4.75 1 0  5 1 0  5.25 1 0  5.5 1 0  5.75 1 0  6 1 0  6.25 1 0  6.5 1 0  6.75 1 0  7 1 0  7.25 1 0  7.5 1 0  7.75 1 0  8 1 0  8.25 1 0  8.5 1 0  8.75 1 0  9 1 0  9.25 1 0  9.5 1 0  9.75 1 0  10 1 0  10.25 1 0  10.5 1 0  10.75 1 0  11 1 0  11.25 1 0  11.5 1 0  11.75 1 0  12 1 0  12.25 1 0  12.5 1 0  12.75 1 0  13 1 0  13.25 1 0  13.5 1 0  13.75 1 0  14 1 0  14.25 1 0  14.5 1 0  14.75 1 0  15 1 0  15.25 1 0  15.5 1 0  15.75 1 0  16 1 0  16.25 1 0  16.5 1 0  16.75 1 0  17 1 0  17.25 1 0  17.5 1 0  17.75 1 0  18 1 0  18.25 1 0  18.5 1 0  18.75 1 0  19 1 0  19.25 1 0  19.5 1 0  19.75 1 0  20 1 0  20.25 1 0  20.5 1 0  20.75 1 0  21 1 0  21.25 1 0  21.5 1 0  21.75 1 0  22 1 0  22.25 1 0  22.5 1 0  22.75 1 0  23 1 0  23.25 1 0  23.5 1 0  23.75 1 0  24 1 0  24.25 1 0  24.5 1 0  24.75 1 0  25 1 0  0 1.25 0  0.25 1.25 0  0.5 1.25 0  0.75 1.25 0  1 1.25 0  1.25 1.25 0  1.5 1.25 0  1.75 1.25 0  2 1.25 0  2.25 1.25 0  2.5 1.25 0  2.75 1.25 0  3 1.25 0  3.25 1.25 0  3.5 1.25 0  3.75 1.25 0  4 1.25 0  4.25 1.25 0  4.5 1.25 0  4.75 1.25 0  5 1.25 0  5.25 1.25 0  5.5 1.25 0  5.75 1.25 0  6 1.25 0  6.25 1.25 0  6.5 1.25 0  6.75 1.25 0  7 1.25 0  7.25 1.25 0  7.5 1.25 0  7.75 1.25 0  8 1.25 0  8.25 1.25 0  8.5 1.25 0  8.75 1.25 0  9 1.25 0  9.25 1.25 0  9.5 1.25 0  9.75 1.25 0  10 1.25 0  10.25 1.25 0  10.5 1.25 0  10.75 1.25 0  11 1.25 0  11.25 1.25 0  11.5 1.25 0  11.75 1.25 0  12 1.25 0  12.25 1.25 0  12.5 1.25 0  12.75 1.25 0  13 1.25 0  13.25 1.25 0  13.5 1.25 0  13.75 1.25 0  14 1.25 0  14.25 1.25 0  14.5 1.25 0  14.75 1.25 0  15 1.25 0  15.25 1.25 0  15.5 1.25 0  15.75 1.25 0  16 1.25 0  16.25 1.25 0  16.5 1.25 0  16.75 1.25 0  17 1.25 0  17.25 1.25 0  17.5 1.25 0  17.75 1.25 0  18 1.25 0  18.25 1.25 0  18.5 1.25 0  18.75 1.25 0  19 1.25 0  19.25 1.25 0  19.5 1.25 0  19.75 1.25 0  20 1.25 0  20.25 1.25 0  20.5 1.25 0  20.75 1.25 0  21 1.25 0  21.25 1.25 0  21.5 1.25 0  21.75 1.25 0  22 1.25 0  22.25 1.25 0  22.5 1.25 0  22.75 1.25 0  23 1.25 0  23.25 1.25 0  23.5 1.25 0  23.75 1.25 0  24 1.25 0  24.25 1.25 0  24.5 1.25 0  24.75 1.25 0  25 1.25 0  0 1.5 0  0.25 1.5 0  0.5 1.5 0  0.75 1.5 0  1 1.5 0  1.25 1.5 0  1.5 1.5 0  1.75 1.5 0  2 1.5 0  2.25 1.5 0  2.5 1.5 0  2.75 1.5 0  3 1.5 0  3.25 1.5 0  3.5 1.5 0  3.75 1.5 0  4 1.5 0  4.25 1.5 0  4.5 1.5 0  4.75 1.5 0  5 1.5 0  5.25 1.5 0  5.5 1.5 0  5.75 1.5 0  6 1.5 0  6.25 1.5 0  6.5 1.5 0  6.75 1.5 0  7 1.5 0  7.25 1.5 0  7.5 1.5 0  7.75 1.5 0  8 1.5 0  8.25 1.5 0  8.5 1.5 0  8.75 1.5 0  9 1.5 0  9.25 1.5 0  9.5 1.5 0  9.75 1.5 0  10 1.5 0  10.25 1.5 0  10.5 1.5 0  10.75 1.5 0  11 1.5 0  11.25 1.5 0  11.5 1.5 0  11.75 1.5 0  12 1.5 0  12.25 1.5 0  12.5 1.5 0  12.75 1.5 0  13 1.5 0  13.25 1.5 0  13.5 1.5 0  13.75 1.5 0  14 1.5 0  14.25 1.5 0  14.5 1.5 0  14.75 1.5 0  15 1.5 0  15.25 1.5 0  15.5 1.5 0  15.75 1.5 0  16 1.5 0  16.25 1.5 0  16.5 1.5 0  16.75 1.5 0  17 1.5 0  17.25 1.5 0  17.5 1.5 0  17.75 1.5 0  18 1.5 0  18.25 1.5 0  18.5 1.5 0  18.75 1.5 0  19 1.5 0  19.25 1.5 0  19.5 1.5 0  19.75 1.5 0  20 1.5 0  20.25 1.5 0  20.5 1.5 0  20.75 1.5 0  21 1.5 0  21.25 1.5 0  21.5 1.5 0  21.75 1.5 0  22 1.5 0  22.25 1.5 0  22.5 1.5 0  22.75 1.5 0  23 1.5 0  23.25 1.5 0  23.5 1.5 0  23.75 1.5 0  24 1.5 0  24.25 1.5 0  24.5 1.5 0  24.75 1.5 0  25 1.5 0  0 1.75 0  0.25 1.75 0  0.5 1.75 0  0.75 1.75 0  1 1.75 0  1.25 1.75 0  1.5 1.75 0  1.75 1.75 0  2 1.75 0  2.25 1.75 0  2.5 1.75 0  2.75 1.75 0  3 1.75 0  3.25 1.75 0  3.5 1.75 0  3.75 1.75 0  4 1.75 0  4.25 1.75 0  4.5 1.75 0  4.75 1.75 0  5 1.75 0  5.25 1.75 0  5.5 1.75 0  5.75 1.75 0  6 1.75 0  6.25 1.75 0  6.5 1.75 0  6.75 1.75 0  7 1.75 0  7.25 1.75 0  7.5 1.75 0  7.75 1.75 0  8 1.75 0  8.25 1.75 0  8.5 1.75 0  8.75 1.75 0  9 1.75 0  9.25 1.75 0  9.5 1.75 0  9.75 1.75 0  10 1.75 0  10.25 1.75 0  10.5 1.75 0  10.75 1.75 0  11 1.75 0  11.25 1.75 0  11.5 1.75 0  11.75 1.75 0  12 1.75 0  12.25 1.75 0  12.5 1.75 0  12.75 1.75 0  13 1.75 0  13.25 1.75 0  13.5 1.75 0  13.75 1.75 0  14 1.75 0  14.25 1.75 0  14.5 1.75 0  14.75 1.75 0  15 1.75 0  15.25 1.75 0  15.5 1.75 0  15.75 1.75 0  16 1.75 0  16.25 1.75 0  16.5 1.75 0  16.75 1.75 0  17 1.75 0  17.25 1.75 0  17.5 1.75 0  17.75 1.75 0  18 1.75 0  18.25 1.75 0  18.5 1.75 0  18.75 1.75 0  19 1.75 0  19.25 1.75 0  19.5 1.75 0  19.75 1.75 0  20 1.75 0  20.25 1.75 0  20.5 1.75 0  20.75 1.75 0  21 1.75 0  21.25 1.75 0  21.5 1.75 0  21.75 1.75 0  22 1.75 0  22.25 1.75 0  22.5 1.75 0  22.75 1.75 0  23 1.75 0  23.25 1.75 0  23.5 1.75 0  23.75 1.75 0  24 1.75 0  24.25 1.75 0  24.5 1.75 0  24.75 1.75 0  25 1.75 0  0 2 0  0.25 2 0  0.5 2 0  0.75 2 0  1 2 0  1.25 2 0  1.5 2 0  1.75 2 0  2 2 0  2.25 2 0  2.5 2 0  2.75 2 0  3 2 0  3.25 2 0  3.5 2 0  3.75 2 0  4 2 0  4.25 2 0  4.5 2 0  4.75 2 0  5 2 0  5.25 2 0  5.5 2 0  5.75 2 0  6 2 0  6.25 2 0  6.5 2 0  6.75 2 0  7 2 0  7.25 2 0  7.5 2 0  7.75 2 0  8 2 0  8.25 2 0  8.5 2 0  8.75 2 0  9 2 0  9.25 2 0  9.5 2 0  9.75 2 0  10 2 0  10.25 2 0  10.5 2 0  10.75 2 0  11 2 0  11.25 2 0 
[...]
<PointData  Scalars="f_26"> 
<DataArray  type="Float64"  Name="f_26"  format="ascii">2.5964587540024066e-05  2.5954349482635901e-05  2.5932080712786940e-05  2.5895615517960401e-05  2.5843121620409795e-05  2.5772500562851921e-05  2.5681337603394537e-05  2.5567060224939274e-05  2.5427254848881255e-05  2.5260138626190624e-05  2.5065156088574562e-05  2.4843605264569221e-05  2.4599121832231037e-05  2.4337807440150722e-05  2.4067818969843271e-05  2.3798613187223573e-05  2.3541523423351110e-05  2.3314550226517330e-05  2.3149008624083105e-05  2.3061752012721282e-05  2.3025364332537796e-05  2.3015109486455539e-05  2.3020620107231277e-05  2.3035768710874413e-05  2.3056055341889397e-05  2.3078394380400944e-05  2.3101113831821442e-05  2.3123794486909040e-05  2.3146947523522430e-05  2.3171628027969048e-05  2.3199059365041179e-05  2.3230299712272025e-05  2.3265966248733509e-05  2.3306039728614116e-05  2.3349776513534093e-05  2.3395740435212003e-05  2.3441939477443561e-05  2.3486030014395742e-05  2.3525544990892766e-05  2.3558110075916098e-05  2.3581625891488113e-05  2.3594408443209655e-05  2.3595290113765737e-05  2.3583688602616901e-05  2.3559651345566603e-05  2.3523879465712419e-05  2.3477729441644788e-05  2.3423183487343642e-05  2.3362772566614087e-05  2.3299431749971998e-05  2.3236271115621512e-05  2.3176263303339757e-05  2.3121884861435237e-05  2.3074792077043338e-05  2.3035632706512608e-05  2.3004062736539029e-05  2.2978957057622751e-05  2.2958723598494524e-05  2.2941604988778041e-05  2.2925886636689190e-05  2.2909987578580481e-05  2.2892446510103008e-05  2.2871835132395989e-05  2.2846573407375118e-05  2.2814742345121225e-05  2.2773338604185665e-05  2.2718400356447676e-05  2.2639063816252167e-05  2.2525260103341987e-05  2.2304936252772733e-05  2.2048946814982993e-05  2.2121693427734697e-05  2.2377236918032840e-05  2.2684740823409560e-05  2.3012557482342596e-05  2.3343962837617375e-05  2.3663863118768220e-05  2.3959287470420504e-05  2.4221250168455999e-05  2.4445447949398631e-05  2.4631722873431481e-05  2.4782857502690820e-05  2.4903263664932578e-05  2.4997913945579985e-05  2.5071632653899247e-05  2.5128713479670582e-05  2.5172772544191900e-05  2.5206744385540681e-05  2.5232950580657549e-05  2.5253195839327492e-05  2.5268866282475061e-05  2.5281017806761251e-05  2.5290450178037040e-05  2.5297766546866382e-05  2.5303419902833409e-05  2.5307748580513891e-05  2.5311002903300764e-05  2.5313364712269547e-05  2.5314960911295038e-05  2.5315870709321135e-05  2.5316120955750539e-05  2.5947435322155182e-05  2.5939479983815064e-05  2.5917482700561656e-05  2.5880706562089181e-05  2.5827648094750923e-05  2.5756310342946618e-05  2.5664340113510377e-05  2.5549231358923019e-05  2.5408653225620674e-05  2.5240920821492518e-05  2.5045581752925907e-05  2.4824024221934549e-05  2.4579938440669632e-05  2.4319421479445172e-05  2.4050552473304893e-05  2.3782713244013615e-05  2.3527160691930882e-05  2.3301523555060877e-05  2.3136971228346492e-05  2.3052337115701083e-05  2.3019153945008668e-05  2.3010903392947673e-05  2.3017910598179813e-05  2.3034119561620471e-05  2.3055088244518520e-05  2.3077823676574198e-05  2.3100753377756802e-05  2.3123545629972104e-05  2.3146775985561416e-05  2.3171539718301114e-05  2.3199080965131432e-05  2.3230466096623875e-05  2.3266314174914970e-05  2.3306605761295678e-05  2.3350596710015917e-05  2.3396849826390802e-05  2.3443370457170022e-05  2.3487809772675469e-05  2.3527692659864023e-05  2.3560634272447774e-05  2.3584523037767838e-05  2.3597661861712339e-05  2.3598869610233446e-05  2.3587550171669025e-05  2.3563736776473180e-05  2.3528115952897958e-05  2.3482029738754177e-05  2.3427447555777447e-05  2.3366891865171470e-05  2.3303297067084568e-05  2.3239783970801914e-05  2.3179349361679824e-05  2.3124505810750940e-05  2.3076951157655565e-05  2.3037370266926653e-05  2.3005442315065079e-05  2.2980047256187113e-05  2.2959582643358488e-05  2.2942272086774953e-05  2.2926380047235842e-05  2.2910306348990537e-05  2.2892574303621007e-05  2.2871739646354410e-05  2.2846217679933047e-05  2.2814046513165680e-05  2.2772321172159998e-05  2.2716677711581164e-05  2.2637690259794628e-05  2.2521432578261446e-05  2.2309954125674423e-05  2.2062983871862687e-05  2.2126331500899357e-05  2.2379407636296429e-05  2.2686421927455250e-05  2.3013895106074444e-05  2.3345021290129972e-05  2.3664810718463874e-05  2.3960223152922438e-05  2.4222194204042522e-05  2.4446374046787616e-05  2.4632588302263517e-05  2.4783625170992272e-05  2.4903912481546437e-05  2.4998439519512135e-05  2.5072042968202723e-05  2.5129023450557003e-05  2.5172999545141689e-05  2.5206905334852762e-05  2.5233060416000558e-05  2.5253266957753873e-05  2.5268908546709145e-05  2.5281038828458715e-05  2.5290455699297267e-05  2.5297760824265075e-05  2.5303406052884419e-05  2.5307728882094109e-05  2.5310979091616732e-05  2.5313338400133822e-05  2.5314934686573875e-05  2.5315852370950657e-05  2.5316142715044734e-05  2.5903794666078467e-05  2.5896082841662909e-05  2.5873658411879584e-05  2.5835802060519043e-05  2.5781133395664400e-05  2.5707768728627245e-05  2.5613481780674353e-05  2.5495932659035972e-05  2.5353010105438035e-05  2.5183301881177976e-05  2.4986661672465541e-05  2.4764775425965885e-05  2.4521562772820083e-05  2.4263213658654633e-05  2.3997713399575265e-05  2.3734327045511227e-05  2.3484458319130329e-05  2.3266697765958271e-05  2.3113019158038702e-05  2.3037925604222659e-05  2.3009687465953646e-05  2.3004375509743782e-05  2.3013530767521390e-05  2.3031173300859340e-05  2.3053043827995081e-05  2.3076318165124303e-05  2.3099576026523223e-05  2.3122604201133010e-05  2.3146061290289204e-05  2.3171097299388170e-05  2.3198991234224259e-05  2.3230830856742110e-05  2.3267246834847984e-05  2.3308223319618865e-05  2.3353012488379866e-05  2.3400166571495932e-05  2.3447673890928728e-05  2.3493162983264045e-05  2.3534131751528353e-05  2.3568165398137923e-05  2.3593120543986274e-05  2.3607267045619958e-05  2.3609389630146100e-05  2.3598856912168248e-05  2.3575665858997704e-05  2.3540466547605404e-05  2.3494566331217391e-05  2.3439905239303050e-05  2.3378986823840907e-05  2.3314743381220598e-05  2.3250316552560839e-05  2.3188750823637102e-05  2.3132632629983560e-05  2.3083752107630684e-05  2.3042889382335117e-05  2.3009802266961014e-05  2.2983417000669828e-05  2.2962140320835932e-05  2.2944174650944175e-05  2.2927745472219530e-05  2.2911207746088508e-05  2.2893041571136835e-05  2.2871764480968406e-05  2.2845755512144513e-05  2.2813025765944828e-05  2.2770602246384711e-05  2.2714172043312711e-05  2.2633895790699784e-05  2.2516560527871605e-05  2.2302529239197118e-05  2.2063624307835563e-05  2.2132312912999813e-05  2.2385922131525936e-05  2.2692733618591615e-05  2.3019773409844144e-05  2.3350305117152621e-05  2.3669422501131655e-05  2.3964141129007914e-05  2.4225436322740500e-05  2.4448987623011574e-05  2.4634640638647950e-05  2.4785194554110355e-05  2.4905080114415572e-05  2.4999283069075862e-05  2.5072632186912496e-05  2.5129417893573749e-05  2.5173248014825109e-05  2.5207046503786872e-05  2.5233124096723949e-05  2.5253275610703748e-05  2.5268878764263020e-05  2.5280982656262989e-05  2.5290381742191508e-05  2.5297675136618234e-05  2.5303312842359011e-05  2.5307631073737328e-05  2.5310878819317743e-05  2.5313237531608884e-05  2.5314835546122717e-05  2.5315758672733578e-05  2.5316058379073029e-05  2.5830081637736662e-05  2.5822055294488617e-05  2.5798577172765774e-05  2.5758865638821084e-05  2.5701605008848196e-05  2.5625041538989079e-05  2.5527142492121399e-05  2.5405839945718574e-05  2.5259383532379185e-05  2.5086803796429766e-05  2.4888443812234823e-05  2.4666456810960987e-05  2.4425110642733464e-05  2.4170710425406668e-05  2.3911097937479184e-05  2.3655465835365165e-05  2.3415746602231019e-05  2.3212810911080632e-05  2.3078936795841202e-05  2.3018579622861479e-05  2.2997272918416867e-05  2.2996248010824590e-05  2.3008214744267674e-05  2.3027557706803172e-05  2.3050387972815751e-05  2.3074171458459023e-05  2.3097722744817898e-05  2.3120990538607116e-05  2.3144736138118443e-05  2.3170172647952280e-05  2.3198618874328260e-05  2.3231188051018464e-05  2.3268525026783081e-05  2.3310617095339372e-05  2.3356708336991341e-05  2.3405331942892007e-05  2.3454447246321462e-05  2.3501645535248913e-05  2.3544381384483226e-05  2.3580192753399519e-05  2.3606886688682863e-05  2.3622681869322353e-05  2.3626310249565226e-05  2.3617085798607234e-05  2.3594948987681384e-05  2.3560492538158254e-05  2.3514968283502781e-05  2.3460267648992466e-05  2.3398860246795766e-05  2.3333668893656621e-05  2.3267860158319099e-05  2.3204544920352344e-05  2.3146417977491765e-05  2.3095410106688055e-05  2.3052452689034975e-05  2.3017435632423018e-05  2.2989371348153833e-05  2.2966695136613141e-05  2.2947587056855201e-05  2.2930217192969978e-05  2.2912870601948829e-05  2.2893955834626898e-05  2.2871921016124425e-05  2.2845079103814020e-05  2.2811360175765100e-05  2.2767708187037784e-05  2.2709624769925355e-05  2.2627055312424551e-05  2.2506361299384346e-05  2.2287096919088286e-05  2.2061112958065069e-05  2.2141243006166459e-05  2.2396750730476056e-05  2.2703496054235245e-05  2.3029936869318584e-05  2.3359513366598378e-05  2.3677434962244286e-05  2.3970846343790538e-05  2.4230846903344407e-05  2.4453209077757431e-05  2.4637832666753098e-05  2.4787536416063019e-05  2.4906745889482715e-05  2.5000427428069580e-05  2.5073384489025147e-05  2.5129881707392864e-05  2.5173503581750048e-05  2.5207154418793275e-05  2.5233129175250975e-05  2.5253210413697452e-05  2.5268766570387722e-05  2.5280839847925910e-05  2.5290219659167737e-05  2.5297501485371396e-05  2.5303132755947621e-05  2.5307447911957341e-05  2.5310694788895003e-05  2.5313054187512966e-05  2.5314654170080707e-05  2.5315580281174190e-05  2.5315882432021986e-05  2.5722452430509051e-05  2.5713925485128542e-05  2.5688957543609272e-05  2.5646769274408407e-05  2.5586140507767326e-05  2.5505501295096759e-05  2.5403099194366934e-05  2.5277256306146353e-05  2.5126725912214118e-05  2.4951135532252449e-05  2.4751461691048884e-05  2.4530429755584588e-05  2.4292684310498949e-05  2.4044574826870906e-05  2.3793799513606196e-05  2.3549656784747879e-05  2.3325436844637254e-05  2.3145724880374770e-05  2.3039591334979556e-05  2.2996282915931122e-05  2.2982968839423345e-05  2.2987134211795695e-05  2.3002303610394429e-05  2.3023462702677774e-05  2.3047203305610829e-05  2.3071386839251160e-05  2.3095130132249057e-05  2.3118580583054070e-05  2.3142620162097805e-05  2.3168532802715321e-05  2.3197680521047650e-05  2.3231203556826541e-05  2.3269760929390783e-05  2.3313341064868407e-05  2.3361175512755756e-05  2.3411771400142775e-05  2.3463049540052303e-05  2.3512552285561089e-05  2.3557677631472210e-05  2.3595902129378480e-05  2.3624968656339624e-05  2.3643029858037572e-05  2.3648749663650629e-05  2.3641371411041790e-05  2.3620761961156647e-05  2.3587438154037042e-05  2.3542576423024071e-05  2.3487999080319167e-05  2.3426122455234313e-05  2.3359844844917476e-05  2.3292351257318262e-05  2.3226825339349423e-05  2.3166092263271206e-05  2.3112260976341610e-05  2.3066463278939234e-05  2.3028773924600343e-05  2.2998336982210086e-05  2.2973645070359022e-05  2.2952864207495028e-05  2.2934099677522974e-05  2.2915545580839925e-05  2.2895511813942062e-05  2.2872347317245955e-05  2.2844266293529382e-05  2.2809080056211593e-05  2.2763602500354700e-05  2.2703064020349195e-05  2.2617165163566448e-05  2.2491364511302349e-05  2.2266172597296589e-05  2.2058573572769197e-05  2.2153559343099991e-05  2.2411648799610404e-05  2.2718348606966314e-05  2.3043980507075024e-05  2.3372231885476277e-05  2.3688465996786224e-05  2.3980015187611051e-05  2.4238168281169558e-05  2.4458841380936001e-05  2.4642016694418325e-05  2.4790540147850071e-05  2.4908825797790588e-05  2.5001807325039519e-05  2.5074247879701886e-05  2.5130372516722105e-05  2.5173731046360885e-05  2.5207199381476184e-05  2.5233050258795187e-05  2.5253049387764783e-05  2.5268552709429876e-05  2.5280593320988130e-05  2.5289954092196491e-05  2.5297225860982368e-05  2.5302852804929511e-05  2.5307167126418485e-05  2.5310415157352838e-05  2.5312776715339419e-05  2.5314379191863407e-05  2.5315307483470926e-05  2.5315610473925433e-05  2.5576691155997859e-05  2.5567629321928155e-05  2.5540941994233037e-05  2.5495921283911415e-05  2.5431509252403878e-05  2.5346402643617484e-05  2.5239234626027608e-05  2.5108841253952632e-05  2.4954609970821162e-05  2.4776882716389917e-05  2.4577348162987625e-05  2.4359312520524035e-05  2.4127702550126752e-05  2.3888832956683383e-05  2.3650396612982842e-05  2.3422266741005511e-05  2.3220770048526603e-05  2.3074383382575930e-05  2.3000477411188209e-05  2.2973300806800870e-05  2.2968415376657686e-05  2.2978102322575488e-05  2.2996430355147902e-05  2.3019209816930026e-05  2.3043603444626143e-05  2.3067945715697117e-05  2.3091689988803194e-05  2.3115198022440715e-05  2.3139477695413411e-05  2.3165884592699762e-05  2.3195823296874425e-05  2.3230459804846070e-05  2.3270465488016800e-05  2.3315827335742981e-05  2.3365760831929140e-05  2.3418742230014089e-05  2.3472647414159133e-05  2.3524961704059779e-05  2.3573017009674081e-05  2.3614218087576523e-05  2.3646232856673973e-05  2.3667136961176374e-05  2.3675515058408856e-05  2.3670527958772850e-05  2.3651955809731114e-05  2.3620224611124738e-05  2.3576417993683980e-05  2.3522269078401070e-05  2.3460118787430056e-05  2.3392818844503009e-05  2.3323554640434804e-05  2.3255573634858842e-05  2.3191836108714265e-05  2.3134649985370590e-05  2.3085383715022999e-05  2.3044344064448764e-05  2.3010855851717531e-05  2.2983508701867092e-05  2.2960476523910856e-05  2.2939802284095388e-05  2.2919576123881392e-05  2.2897986596454494e-05  2.2873255550988011e-05  2.2843467540268180e-05  2.2806277635711311e-05  2.2758335481548880e-05  2.2694507765767261e-05  2.2604321083172314e-05  2.2471810850276770e-05  2.2241562488929965e-05  2.2057662447379276e-05  2.2169254349913057e-05  2.2430191381757149e-05  2.2736775289422912e-05  2.3061356633864874e-05  2.3387917167573339e-05  2.3702009191302532e-05  2.3991203172408982e-05  2.4247029095635491e-05  2.4465585498595872e-05  2.4646957674375058e-05  2.4794023241275807e-05  2.4911178408974445e-05  2.5003312516616678e-05  2.5075135457823496e-05  2.5130820834951826e-05  2.5173873966334223e-05  2.5207134797949717e-05  2.5232848258083659e-05  2.5252759212709385e-05  2.5268208328050865e-05  2.5280217696954723e-05  2.5289562369112634e-05  2.5296827690773876e-05  2.5302454026758883e-05  2.5306770964171540e-05  2.5310023062811646e-05  2.5312388943977354e-05  2.5313995159932626e-05  2.5314925931217287e-05  2.5315229504502239e-05  2.5388982176034783e-05  2.5379466921135174e-05  2.5351078978698986e-05  2.5303250860598006e-05  2.5235168357913244e-05  2.5145891322881199e-05  2.5034547176517286e-05  2.4900596073160532e-05  2.4744152729811087e-05  2.4566325109789037e-05  2.4369494295581472e-05  2.4157422542057607e-05  2.3935175728205364e-05  2.3709127342736348e-05  2.3487275795187364e-05  2.3281388394584746e-05  2.3113054910717809e-05  2.3009231050758346e-05  2.2965419824300129e-05  2.2951820573778666e-05  2.2955331665400235e-05  2.2970109189323234e-05  2.2991084942286919e-05  2.3014991210350761e-05  2.3039606947884453e-05  2.3063764292614402e-05  2.3087251262091368e-05  2.3110638154680677e-05  2.3135051845860580e-05  2.3161914180681378e-05  2.3192668236725375e-05  2.3228502511634075e-05  2.3270098035868082e-05  2.3317438235061738e-05  2.3369720859920278e-05  2.3425389565408883e-05  2.3482272751536102e-05  2.3537794757382991e-05  2.3589216037374009e-05  2.3633863171085049e-05  2.3669322246624580e-05  2.3693584874533084e-05  2.3705149262017620e-05  2.3703086063816071e-05  2.3687080050183718e-05  2.3657455838169901e-05  2.3615190780097995e-05  2.3561911312436860e-05  2.3499860788827966e-05  2.3431818125563345e-05  2.3360941516869121e-05  2.3290518328577334e-05  2.3223629721449039e-05  2.3162782949773828e-05  2.3109600663387747e-05  2.3064655999155812e-05  2.3027500460524738e-05  2.2996867497394904e-05  2.2970974602257661e-05  2.2947819819516678e-05  2.2925388404037060e-05  2.2901732759641972e-05  2.2874924424695658e-05  2.2842889499517936e-05  2.2803094796167706e-05  2.2751991525578361e-05  2.2684025481230670e-05  2.2588635139317548e-05  2.2448110036280193e-05  2.2215289028048104e-05  2.2059513399871014e-05  2.2188061963253608e-05  2.2451794538141306e-05  2.2758113261496815e-05  2.3081377548478976e-05  2.3405894224593648e-05  2.3717435295711138e-05  2.4003852118597492e-05  2.4256955002408144e-05  2.4473051776419883e-05  2.4652343183784156e-05  2.4797738871907674e-05  2.4913609939855743e-05  2.5004790725239053e-05  2.5075926779210144e-05  2.5131130379714448e-05  2.5173854336256133e-05  2.5206896507714276e-05  2.5232469545756756e-05  2.5252294320695658e-05  2.5267694061443251e-05  2.5279678408676593e-05  2.5289013644273663e-05  2.5296279015318618e-05  2.5301910691018338e-05  2.5306235402992914e-05  2.5309495785393887e-05  2.5311869164348596e-05  2.5313481206924412e-05  2.5314415502586827e-05  2.5314719847876991e-05  2.5157211563516577e-05  2.5147430988437943e-05  2.5117658463769689e-05  2.5067533927596464e-05  2.4996566567184674e-05  2.4904267390256906e-05  2.4790344067337628e-05  2.4654947243103344e-05  2.4498941599229188e-05  2.4324149222691708e-05  2.4133485967000908e-05  2.3931001713601786e-05  2.3721961518883216e-05  2.3513036617298041e-05  2.3313534695786954e-05  2.3139842858942755e-05  2.3017562867764845e-05  2.2957458116978059e-05  2.2936056514008834e-05  2.2934004523099134e-05  2.2945012792378229e-05  2.2963758659057702e-05  2.2986513611506776e-05  2.3010841655734573e-05  2.3035143102585482e-05  2.3058716196595226e-05  2.3081651817189760e-05  2.3104705020318138e-05  2.3129105393598249e-05  2.3156330997860722e-05  2.3187856962583506e-05  2.3224889996738857e-05  2.3268118241833301e-05  2.3317520908008192e-05  2.3372279175575340e-05  2.3430806288408165e-05  2.3490885102828070e-05  2.3549879597529075e-05  2.3604977703587249e-05  2.3653425382346950e-05  2.3692723684238477e-05  2.3720776721604714e-05  2.3735992734874119e-05  2.3737348516050187e-05  2.3724429085228328e-05  2.3697451800687408e-05  2.3657279108988296e-05  2.3605417751170738e-05  2.3543994391351235e-05  2.3475688841015788e-05  2.3403599434690354e-05  2.3331018164464735e-05  2.3261115551598078e-05  2.3196577360487127e-05  2.3139275775592514e-05  2.3090065034293235e-05  2.3048756907275352e-05  2.3014274038768091e-05  2.2984922077624760e-05  2.2958686080562482e-05  2.2933460282333165e-05  2.2907157948285015e-05  2.2877685428434562e-05  2.2842787442879964e-05  2.2799718721021950e-05  2.2744703730982956e-05  2.2671761107919213e-05  2.2570322742899892e-05  2.2421069356474619e-05  2.2189562566009738e-05  2.2064789766351418e-05  2.2209495836850016e-05  2.2475723544248720e-05  2.2781557122083487e-05  2.3103219344214770e-05  2.3425360331604693e-05  2.3733997848311491e-05  2.4017298103351571e-05  2.4267377893441657e-05  2.4480768964307275e-05  2.4657791116630079e-05  2.4801381698962014e-05  2.4915878108750841e-05  2.5006049809727395e-05  2.5076468732183600e-05  2.5131178040719951e-05  2.5173571969626133e-05  2.5206401818568733e-05  2.5231844807015440e-05  2.5251595666184715e-05  2.5266958784084480e-05  2.5278930465521659e-05  2.5288267693783528e-05  2.5295543317337305e-05  2.5301189155774049e-05  2.5305529017881055e-05  2.5308803593551059e-05  2.5311188923643343e-05  2.5312809824737547e-05  2.5313749322776330e-05  2.5314054861807234e-05  2.4882544174026996e-05  2.4872765496953686e-05  2.4842238699338463e-05  2.4790862532709384e-05  2.4718524809745828e-05  2.4625238958495110e-05  2.4511323615636912e-05  2.4377606010450013e-05  2.4225608678038130e-05  2.4057686674495853e-05  2.3877151431247931e-05  2.3688397569786806e-05  2.3497077944062383e-05  2.3311035797545298e-05  2.3143628810694153e-05  2.3016870255067036e-05  2.2946888540168705e-05  2.2919553198555115e-05  2.2913648979877985e-05  2.2921413519484659e-05  2.2937946181176057e-05  2.2959180638328024e