<?xml version="1.0"?>
<VTKFile type="UnstructuredGrid"  version="0.1"  >
<UnstructuredGrid>
<Piece  NumberOfPoints="10201" NumberOfCells="20000">
<Points>
<DataArray  type="Float64"  NumberOfComponents="3"  format="ascii">0 0 0  0.25 0 0  0.5 0 0  0.75 0 0  1 0 0  1.25 0 0  1.5 0 0  1.75 0 0  2 0 0  2.25 0 0  2.5 0 0  2.75 0 0  3 0 0  3.25 0 0  3.5 0 0  3.75 0 0  4 0 0  4.25 0 0  4.5 0 0  4.75 0 0  5 0 0  5.25 0 0  5.5 0 0  5.75 0 0  6 0 0  6.25 0 0  6.5 0 0  6.75 0 0  7 0 0  7.25 0 0  7.5 0 0  7.75 0 0  8 0 0  8.25 0 0  8.5 0 0  8.75 0 0  9 0 0  9.25 0 0  9.5 0 0  9.75 0 0  10 0 0  10.25 0 0  10.5 0 0  10.75 0 0  11 0 0  11.25 0 0  11.5 0 0  11.75 0 0  12 0 0  12.25 0 0  12.5 0 0  12.75 0 0  13 0 0  13.25 0 0  13.5 0 0  13.75 0 0  14 0 0  14.25 0 0  14.5 0 0  14.75 0 0  15 0 0  15.25 0 0  15.5 0 0  15.75 0 0  16 0 0  16.25 0 0  16.5 0 0  16.75 0 0  17 0 0  17.25 0 0  17.5 0 0  17.75 0 0  18 0 0  18.25 0 0  18.5 0 0  18.75 0 0  19 0 0  19.25 0 0  19.5 0 0  19.75 0 0  20 0 0  20.25 0 0  20.5 0 0  20.75 0 0  21 0 0  21.25 0 0  21.5 0 0  21.75 0 0  22 0 0  22.25 0 0  22.5 0 0  22.75 0 0  23 0 0  23.25 0 0  23.5 0 0  23.75 0 0  24 0 0  24.25 0 0  24.5 0 0  24.75 0 0  25 0 0  0 0.25 0  0.25 0.25 0  0.5 0.25 0  0.75 0.25 0  1 0.25 0  1.25 0.25 0  1.5 0.25 0  1.75 0.25 0  2 0.25 0  2.25 0.25 0  2.5 0.25 0  2.75 0.25 0  3 0.25 0  3.25 0.25 0  3.5 0.25 0  3.75 0.25 0  4 0.25 0  4.25 0.25 0  4.5 0.25 0  4.75 0.25 0  5 0.25 0  5.25 0.25 0  5.5 0.25 0  5.75 0.25 0  6 0.25 0  6.25 0.25 0  6.5 0.25 0  6.75 0.25 0  7 0.25 0  7.25 0.25 0  7.5 0.25 0  7.75 0.25 0  8 0.25 0  8.25 0.25 0  8.5 0.25 0  8.75 0.25 0  9 0.25 0  9.25 0.25 0  9.5 0.25 0  9.75 0.25 0  10 0.25 0  10.25 0.25 0  10.5 0.25 0  10.75 0.25 0  11 0.25 0  11.25 0.25 0  11.5 0.25 0  11.75 0.25 0  12 0.25 0  12.25 0.25 0  12.5 0.25 0  12.75 0.25 0  13 0.25 0  13.25 0.25 0  13.5 0.25 0  13.75 0.25 0  14 0.25 0  14.25 0.25 0  14.5 0.25 0  14.75 0.25 0  15 0.25 0  15.25 0.25 0  15.5 0.25 0  15.75 0.25 0  16 0.25 0  16.25 0.25 0  16.5 0.25 0  16.75 0.25 0  17 0.25 0  17.25 0.25 0  17.5 0.25 0  17.75 0.25 0  18 0.25 0  18.25 0.25 0  18.5 0.25 0  18.75 0.25 0  19 0.25 0  19.25 0.25 0  19.5 0.25 0  19.75 0.25 0  20 0.25 0  20.25 0.25 0  20.5 0.25 0  20.75 0.25 0  21 0.25 0  21.25 0.25 0  21.5 0.25 0  21.75 0.25 0  22 0.25 0  22.25 0.25 0  22.5 0.25 0  22.75 0.25 0  23 0.25 0  23.25 0.25 0  23.5 0.25 0  23.75 0.25 0  24 0.25 0  24.25 0.25 0  24.5 0.25 0  24.75 0.25 0  25 0.25 0  0 0.5 0  0.25 0.5 0  0.5 0.5 0  0.75 0.5 0  1 0.5 0  1.25 0.5 0  1.5 0.5 0  1.75 0.5 0  2 0.5 0  2.25 0.5 0  2.5 0.5 0  2.75 0.5 0  3 0.5 0  3.25 0.5 0  3.5 0.5 0  3.75 0.5 0  4 0.5 0  4.25 0.5 0  4.5 0.5 0  4.75 0.5 0  5 0.5 0  5.25 0.5 0  5.5 0.5 0  5.75 0.5 0  6 0.5 0  6.25 0.5 0  6.5 0.5 0  6.75 0.5 0  7 0.5 0  7.25 0.5 0  7.5 0.5 0  7.75 0.5 0  8 0.5 0  8.25 0.5 0  8.5 0.5 0  8.75 0.5 0  9 0.5 0  9.25 0.5 0  9.5 0.5 0  9.75 0.5 0  10 0.5 0  10.25 0.5 0  10.5 0.5 0  10.75 0.5 0  11 0.5 0  11.25 0.5 0  11.5 0.5 0  11.75 0.5 0  12 0.5 0  12.25 0.5 0  12.5 0.5 0  12.75 0.5 0  13 0.5 0  13.25 0.5 0  13.5 0.5 0  13.75 0.5 0  14 0.5 0  14.25 0.5 0  14.5 0.5 0  14.75 0.5 0  15 0.5 0  15.25 0.5 0  15.5 0.5 0  15.75 0.5 0  16 0.5 0  16.25 0.5 0  16.5 0.5 0  16.75 0.5 0  17 0.5 0  17.25 0.5 0  17.5 0.5 0  17.75 0.5 0  18 0.5 0  18.25 0.5 0  18.5 0.5 0  18.75 0.5 0  19 0.5 0  19.25 0.5 0  19.5 0.5 0  19.75 0.5 0  20 0.5 0  20.25 0.5 0  20.5 0.5 0  20.75 0.5 0  21 0.5 0  21.25 0.5 0  21.5 0.5 0  21.75 0.5 0  22 0.5 0  22.25 0.5 0  22.5 0.5 0  22.75 0.5 0  23 0.5 0  23.25 0.5 0  23.5 0.5 0  23.75 0.5 0  24 0.5 0  24.25 0.5 0  24.5 0.5 0  24.75 0.5 0  25 0.5 0  0 0.75 0  0.25 0.75 0  0.5 0.75 0  0.75 0.75 0  1 0.75 0  1.25 0.75 0  1.5 0.75 0  1.75 0.75 0  2 0.75 0  2.25 0.75 0  2.5 0.75 0  2.75 0.75 0  3 0.75 0  3.25 0.75 0  3.5 0.75 0  3.75 0.75 0  4 0.75 0  4.25 0.75 0  4.5 0.75 0  4.75 0.75 0  5 0.75 0  5.25 0.75 0  5.5 0.75 0  5.75 0.75 0  6 0.75 0  6.25 0.75 0  6.5 0.75 0  6.75 0.75 0  7 0.75 0  7.25 0.75 0  7.5 0.75 0  7.75 0.75 0  8 0.75 0  8.25 0.75 0  8.5 0.75 0  8.75 0.75 0  9 0.75 0  9.25 0.75 0  9.5 0.75 0  9.75 0.75 0  10 0.75 0  10.25 0.75 0  10.5 0.75 0  10.75 0.75 0  11 0.75 0  11.25 0.75 0  11.5 0.75 0  11.75 0.75 0  12 0.75 0  12.25 0.75 0  12.5 0.75 0  12.75 0.75 0  13 0.75 0  13.25 0.75 0  13.5 0.75 0  13.75 0.75 0  14 0.75 0  14.25 0.75 0  14.5 0.75 0  14.75 0.75 0  15 0.75 0  15.25 0.75 0  15.5 0.75 0  15.75 0.75 0  16 0.75 0  16.25 0.75 0  16.5 0.75 0  16.75 0.75 0  17 0.75 0  17.25 0.75 0  17.5 0.75 0  17.75 0.75 0  18 0.75 0  18.25 0.75 0  18.5 0.75 0  18.75 0.75 0  19 0.75 0  19.25 0.75 0  19.5 0.75 0  19.75 0.75 0  20 0.75 0  20.25 0.75 0  20.5 0.75 0  20.75 0.75 0  21 0.75 0  21.25 0.75 0  21.5 0.75 0  21.75 0.75 0  22 0.75 0  22.25 0.75 0  22.5 0.75 0  22.75 0.75 0  23 0.75 0  23.25 0.75 0  23.5 0.75 0  23.75 0.75 0  24 0.75 0  24.25 0.75 0  24.5 0.75 0  24.75 0.75 0  25 0.75 0  0 1 0  0.25 1 0  0.5 1 0  0.75 1 0  1 1 0  1.25 1 0  1.5 1 0  1.75 1 0  2 1 0  2.25 1 0  2.5 1 0  2.75 1 0  3 1 0  3.25 1 0  3.5 1 0  3.75 1 0  4 1 0  4.25 1 0  4.5 1 0  4.75 1 0  5 1 0  5.25 1 0  5.5 1 0  5.75 1 0  6 1 0  6.25 1 0  6.5 1 0  6.75 1 0  7 1 0  7.25 1 0  7.5 1 0  7.75 1 0  8 1 0  8.25 1 0  8.5 1 0  8.75 1 0  9 1 0  9.25 1 0  9.5 1 0  9.75 1 0  10 1 0  10.25 1 0  10.5 1 0  10.75 1 0  11 1 0  11.25 1 0  11.5 1 0  11.75 1 0  12 1 0  12.25 1 0  12.5 1 0  12.75 1 0  13 1 0  13.25 1 0  13.5 1 0  13.75 1 0  14 1 0  14.25 1 0  14.5 1 0  14.75 1 0  15 1 0  15.25 1 0  15.5 1 0  15.75 1 0  16 1 0  16.25 1 0  16.5 1 0  16.75 1 0  17 1 0  17.25 1 0  17.5 1 0  17.75 1 0  18 1 0  18.25 1 0  18.5 1 0  18.75 1 0  19 1 0  19.25 1 0  19.5 1 0  19.75 1 0  20 1 0  20.25 1 0  20.5 1 0  20.75 1 0  21 1 0  21.25 1 0  21.5 1 0  21.75 1 0  22 1 0  22.25 1 0  22.5 1 0  22.75 1 0  23 1 0  23.25 1 0  23.5 1 0  23.75 1 0  24 1 0  24.25 1 0  24.5 1 0  24.75 1 0  25 1 0  0 1.25 0  0.25 1.25 0  0.5 1.25 0  0.75 1.25 0  1 1.25 0  1.25 1.25 0  1.5 1.25 0  1.75 1.25 0  2 1.25 0  2.25 1.25 0  2.5 1.25 0  2.75 1.25 0  3 1.25 0  3.25 1.25 0  3.5 1.25 0  3.75 1.25 0  4 1.25 0  4.25 1.25 0  4.5 1.25 0  4.75 1.25 0  5 1.25 0  5.25 1.25 0  5.5 1.25 0  5.75 1.25 0  6 1.25 0  6.25 1.25 0  6.5 1.25 0  6.75 1.25 0  7 1.25 0  7.25 1.25 0  7.5 1.25 0  7.75 1.25 0  8 1.25 0  8.25 1.25 0  8.5 1.25 0  8.75 1.25 0  9 1.25 0  9.25 1.25 0  9.5 1.25 0  9.75 1.25 0  10 1.25 0  10.25 1.25 0  10.5 1.25 0  10.75 1.25 0  11 1.25 0  11.25 1.25 0  11.5 1.25 0  11.75 1.25 0  12 1.25 0  12.25 1.25 0  12.5 1.25 0  12.75 1.25 0  13 1.25 0  13.25 1.25 0  13.5 1.25 0  13.75 1.25 0  14 1.25 0  14.25 1.25 0  14.5 1.25 0  14.75 1.25 0  15 1.25 0  15.25 1.25 0  15.5 1.25 0  15.75 1.25 0  16 1.25 0  16.25 1.25 0  16.5 1.25 0  16.75 1.25 0  17 1.25 0  17.25 1.25 0  17.5 1.25 0  17.75 1.25 0  18 1.25 0  18.25 1.25 0  18.5 1.25 0  18.75 1.25 0  19 1.25 0  19.25 1.25 0  19.5 1.25 0  19.75 1.25 0  20 1.25 0  20.25 1.25 0  20.5 1.25 0  20.75 1.25 0  21 1.25 0  21.25 1.25 0  21.5 1.25 0  21.75 1.25 0  22 1.25 0  22.25 1.25 0  22.5 1.25 0  22.75 1.25 0  23 1.25 0  23.25 1.25 0  23.5 1.25 0  23.75 1.25 0  24 1.25 0  24.25 1.25 0  24.5 1.25 0  24.75 1.25 0  25 1.25 0  0 1.5 0  0.25 1.5 0  0.5 1.5 0  0.75 1.5 0  1 1.5 0  1.25 1.5 0  1.5 1.5 0  1.75 1.5 0  2 1.5 0  2.25 1.5 0  2.5 1.5 0  2.75 1.5 0  3 1.5 0  3.25 1.5 0  3.5 1.5 0  3.75 1.5 0  4 1.5 0  4.25 1.5 0  4.5 1.5 0  4.75 1.5 0  5 1.5 0  5.25 1.5 0  5.5 1.5 0  5.75 1.5 0  6 1.5 0  6.25 1.5 0  6.5 1.5 0  6.75 1.5 0  7 1.5 0  7.25 1.5 0  7.5 1.5 0  7.75 1.5 0  8 1.5 0  8.25 1.5 0  8.5 1.5 0  8.75 1.5 0  9 1.5 0  9.25 1.5 0  9.5 1.5 0  9.75 1.5 0  10 1.5 0  10.25 1.5 0  10.5 1.5 0  10.75 1.5 0  11 1.5 0  11.25 1.5 0  11.5 1.5 0  11.75 1.5 0  12 1.5 0  12.25 1.5 0  12.5 1.5 0  12.75 1.5 0  13 1.5 0  13.25 1.5 0  13.5 1.5 0  13.75 1.5 0  14 1.5 0  14.25 1.5 0  14.5 1.5 0  14.75 1.5 0  15 1.5 0  15.25 1.5 0  15.5 1.5 0  15.75 1.5 0  16 1.5 0  16.25 1.5 0  16.5 1.5 0  16.75 1.5 0  17 1.5 0  17.25 1.5 0  17.5 1.5 0  17.75 1.5 0  18 1.5 0  18.25 1.5 0  18.5 1.5 0  18.75 1.5 0  19 1.5 0  19.25 1.5 0  19.5 1.5 0  19.75 1.5 0  20 1.5 0  20.25 1.5 0  20.5 1.5 0  20.75 1.5 0  21 1.5 0  21.25 1.5 0  21.5 1.5 0  21.75 1.5 0  22 1.5 0  22.25 1.5 0  22.5 1.5 0  22.75 1.5 0  23 1.5 0  23.25 1.5 0  23.5 1.5 0  23.75 1.5 0  24 1.5 0  24.25 1.5 0  24.5 1.5 0  24.75 1.5 0  25 1.5 0  0 1.75 0  0.25 1.75 0  0.5 1.75 0  0.75 1.75 0  1 1.75 0  1.25 1.75 0  1.5 1.75 0  1.75 1.75 0  2 1.75 0  2.25 1.75 0  2.5 1.75 0  2.75 1.75 0  3 1.75 0  3.25 1.75 0  3.5 1.75 0  3.75 1.75 0  4 1.75 0  4.25 1.75 0  4.5 1.75 0  4.75 1.75 0  5 1.75 0  5.25 1.75 0  5.5 1.75 0  5.75 1.75 0  6 1.75 0  6.25 1.75 0  6.5 1.75 0  6.75 1.75 0  7 1.75 0  7.25 1.75 0  7.5 1.75 0  7.75 1.75 0  8 1.75 0  8.25 1.75 0  8.5 1.75 0  8.75 1.75 0  9 1.75 0  9.25 1.75 0  9.5 1.75 0  9.75 1.75 0  10 1.75 0  10.25 1.75 0  10.5 1.75 0  10.75 1.75 0  11 1.75 0  11.25 1.75 0  11.5 1.75 0  11.75 1.75 0  12 1.75 0  12.25 1.75 0  12.5 1.75 0  12.75 1.75 0  13 1.75 0  13.25 1.75 0  13.5 1.75 0  13.75 1.75 0  14 1.75 0  14.25 1.75 0  14.5 1.75 0  14.75 1.75 0  15 1.75 0  15.25 1.75 0  15.5 1.75 0  15.75 1.75 0  16 1.75 0  16.25 1.75 0  16.5 1.75 0  16.75 1.75 0  17 1.75 0  17.25 1.75 0  17.5 1.75 0  17.75 1.75 0  18 1.75 0  18.25 1.75 0  18.5 1.75 0  18.75 1.75 0  19 1.75 0  19.25 1.75 0  19.5 1.75 0  19.75 1.75 0  20 1.75 0  20.25 1.75 0  20.5 1.75 0  20.75 1.75 0  21 1.75 0  21.25 1.75 0  21.5 1.75 0  21.75 1.75 0  22 1.75 0  22.25 1.75 0  22.5 1.75 0  22.75 1.75 0  23 1.75 0  23.25 1.75 0  23.5 1.75 0  23.75 1.75 0  24 1.75 0  24.25 1.75 0  24.5 1.75 0  24.75 1.75 0  25 1.75 0  0 2 0  0.25 2 0  0.5 2 0  0.75 2 0  1 2 0  1.25 2 0  1.5 2 0  1.75 2 0  2 2 0  2.25 2 0  2.5 2 0  2.75 2 0  3 2 0  3.25 2 0  3.5 2 0  3.75 2 0  4 2 0  4.25 2 0  4.5 2 0  4.75 2 0  5 2 0  5.25 2 0  5.5 2 0  5.75 2 0  6 2 0  6.25 2 0  6.5 2 0  6.75 2 0  7 2 0  7.25 2 0  7.5 2 0  7.75 2 0  8 2 0  8.25 2 0  8.5 2 0  8.75 2 0  9 2 0  9.25 2 0  9.5 2 0  9.75 2 0  10 2 0  10.25 2 0  10.5 2 0  10.75 2 0  11 2 0  11.25 2 0 
[...]
<PointData  Scalars="f_26"> 
<DataArray  type="Float64"  Name="f_26"  format="ascii">2.2650381331475120e-05  2.2654374801526604e-05  2.2664410826848884e-05  2.2680771275646238e-05  2.2703503275224629e-05  2.2732514291248716e-05  2.2767572813712489e-05  2.2808306733494489e-05  2.2854217033688742e-05  2.2904703390694671e-05  2.2959093798148385e-05  2.3016672420210700e-05  2.3076703564186122e-05  2.3138452227231886e-05  2.3201202391169606e-05  2.3264273711033052e-05  2.3327036422704929e-05  2.3388923788047052e-05  2.3449441328961310e-05  2.3508172342523627e-05  2.3564779560537051e-05  2.3619003186819070e-05  2.3670655839165912e-05  2.3719615108979022e-05  2.3765814528385008e-05  2.3809233718755217e-05  2.3849888411074743e-05  2.3887820904631991e-05  2.3923091389999715e-05  2.3955770423696529e-05  2.3985932717436755e-05  2.4013652301001068e-05  2.4038999036565459e-05  2.4062036402874443e-05  2.4082820427255481e-05  2.4101399618692672e-05  2.4117815742432705e-05  2.4132105272566260e-05  2.4144301360840631e-05  2.4154436165267633e-05  2.4162543389100826e-05  2.4168660888241356e-05  2.4172833212445574e-05  2.4175113952791137e-05  2.4175567775222848e-05  2.4174272028667091e-05  2.4171317827577037e-05  2.4166810524429114e-05  2.4160869509108502e-05  2.4153627300333603e-05  2.4145227929532961e-05  2.4135824659088482e-05  2.4125577122540828e-05  2.4114648020929821e-05  2.4103199552626457e-05  2.4091389788961535e-05  2.4079369229892992e-05  2.4067277778869414e-05  2.4055242361358351e-05  2.4043375376559887e-05  2.4031774118130991e-05  2.4020521230917182e-05  2.4009686192069600e-05  2.3999327723000025e-05  2.3989496960293779e-05  2.3980241145560071e-05  2.3971607541936621e-05  2.3963647252911055e-05  2.3956418610014354e-05  2.3949989810863410e-05  2.3944440527472068e-05  2.3939862264743994e-05  2.3936357327325490e-05  2.3934036345079027e-05  2.3933014407854314e-05  2.3933405962638193e-05  2.3935318723595036e-05  2.3938846930736510e-05  2.3944064358956847e-05  2.3951017519687708e-05  2.3959719507629267e-05  2.3970144922112145e-05  2.3982226236450785e-05  2.3995851901958912e-05  2.4010866362013477e-05  2.4027072024448019e-05  2.4044233108628533e-05  2.4062081158967226e-05  2.4080321911257013e-05  2.4098643122114393e-05  2.4116722931709553e-05  2.4134238328042827e-05  2.4150873314312994e-05  2.4166326440883692e-05  2.4180317434836245e-05  2.4192592715801968e-05  2.4202929562815190e-05  2.4211138388187678e-05  2.4217061169352128e-05  2.4220557996594404e-05  2.4221445929847997e-05  2.2652498656396393e-05  2.2655934420595529e-05  2.2665816688531517e-05  2.2682106303332470e-05  2.2704775695756120e-05  2.2733711931926803e-05  2.2768677206679303e-05  2.2809298028570211e-05  2.2855076263539900e-05  2.2905413607207489e-05  2.2959640592669945e-05  2.3017044123850634e-05  2.3076891314762747e-05  2.3138449982642505e-05  2.3201006895748580e-05  2.3263884401659160e-05  2.3326455271409890e-05  2.3388155089676267e-05  2.3448491447882921e-05  2.3507049433691634e-05  2.3563493279559297e-05  2.3617564401758227e-05  2.3669076353989442e-05  2.3717907405366395e-05  2.3763991529496308e-05  2.3807308575929705e-05  2.3847874312452566e-05  2.3885730903421956e-05  2.3920938249495649e-05  2.3953566476060720e-05  2.3983689733581929e-05  2.4011381369468822e-05  2.4036710449987114e-05  2.4059739551300175e-05  2.4080523698268124e-05  2.4099110304734477e-05  2.4115539956149229e-05  2.4129847871222534e-05  2.4142065881024184e-05  2.4152224769207839e-05  2.4160356824054922e-05  2.4166498460567942e-05  2.4170692778232859e-05  2.4172991927230209e-05  2.4173459163286905e-05  2.4172170480014195e-05  2.4169215718848344e-05  2.4164699072159756e-05  2.4158738916194302e-05  2.4151466938307867e-05  2.4143026557743064e-05  2.4133570680213999e-05  2.4123258871821463e-05  2.4112254084100218e-05  2.4100719105076151e-05  2.4088812946285336e-05  2.4076687398017635e-05  2.4064483990564859e-05  2.4052331585342299e-05  2.4040344785678950e-05  2.4028623304256300e-05  2.4017252356139776e-05  2.4006304068359382e-05  2.3995839815489821e-05  2.3985913312536972e-05  2.3976574228269341e-05  2.3967872029661120e-05  2.3959859735719789e-05  2.3952597249447053e-05  2.3946153951155017e-05  2.3940610274352752e-05  2.3936058044977745e-05  2.3932599442591811e-05  2.3930344533830186e-05  2.3929407428391772e-05  2.3929901209836711e-05  2.3931931890457574e-05  2.3935591724297189e-05  2.3940952277997906e-05  2.3948057699362617e-05  2.3956918633480458e-05  2.3967507213254889e-05  2.3979753494997701e-05  2.3993543623222300e-05  2.4008719897781295e-05  2.4025082789806133e-05  2.4042394821496827e-05  2.4060386100802761e-05  2.4078761197298114e-05  2.4097206970122996e-05  2.4115400919457693e-05  2.4133019631924058e-05  2.4149746924913798e-05  2.4165281357647792e-05  2.4179342856162809e-05  2.4191678281212662e-05  2.4202065841578317e-05  2.4210318348735852e-05  2.4216285698697034e-05  2.4219859371317055e-05  2.4220995978648285e-05  2.2656982185529591e-05  2.2660272143981978e-05  2.2670021729223918e-05  2.2686184392208685e-05  2.2708701680927185e-05  2.2737439605767078e-05  2.2772149131094499e-05  2.2812453022071924e-05  2.2857854771330012e-05  2.2907761180321159e-05  2.2961509854711082e-05  2.3018395732572470e-05  2.3077694376852549e-05  2.3138682207634240e-05  2.3200654597985007e-05  2.3262942352847158e-05  2.3324926376036044e-05  2.3386049869835884e-05  2.3445827351497757e-05  2.3503850003165447e-05  2.3559787230683150e-05  2.3613384665144893e-05  2.3664459125900692e-05  2.3712891244558913e-05  2.3758616524525654e-05  2.3801615595494496e-05  2.3841904341357324e-05  2.3879524459373950e-05  2.3914534871402569e-05  2.3947004272499892e-05  2.3977004980149286e-05  2.4004608145166518e-05  2.4029880305067031e-05  2.4052881201529632e-05  2.4073662743036155e-05  2.4092268968524671e-05  2.4108736854554471e-05  2.4123097803866584e-05  2.4135379654567958e-05  2.4145609054188620e-05  2.4153814049785497e-05  2.4160026752844476e-05  2.4164285945254418e-05  2.4166639499940096e-05  2.4167146497245386e-05  2.4165878926759037e-05  2.4162922875275633e-05  2.4158379116496170e-05  2.4152363038354270e-05  2.4145003870590101e-05  2.4136443208758818e-05  2.4126832870621167e-05  2.4116332164993018e-05  2.4105104698584868e-05  2.4093314889075973e-05  2.4081124387958665e-05  2.4068688639846665e-05  2.4056153811906718e-05  2.4043654315099112e-05  2.4031311107085417e-05  2.4019230916178995e-05  2.4007506459865961e-05  2.3996217655276078e-05  2.3985433738817972e-05  2.3975216134817417e-05  2.3965621845024179e-05  2.3956707078070220e-05  2.3948530804864406e-05  2.3941157915418111e-05  2.3934661665962965e-05  2.3929125142063207e-05  2.3924641521841000e-05  2.3921313000156067e-05  2.3919248325133645e-05  2.3918558997289985e-05  2.3919354282285457e-05  2.3921735284074543e-05  2.3925788408725155e-05  2.3931578613492146e-05  2.3939142874701618e-05  2.3948484316911383e-05  2.3959567421981314e-05  2.3972314680028908e-05  2.3986604957636384e-05  2.4002273748072995e-05  2.4019115342495227e-05  2.4036886831069177e-05  2.4055313720813700e-05  2.4074096854479854e-05  2.4092920241892226e-05  2.4111459378518650e-05  2.4129389627940140e-05  2.4146394283095667e-05  2.4162171989465665e-05  2.4176443303598545e-05  2.4188956267149832e-05  2.4199491008659268e-05  2.4207863596129070e-05  2.4213929824135148e-05  2.4217590690987340e-05  2.4218802720310786e-05  2.2664301553589569e-05  2.2667533655733117e-05  2.2677165883551771e-05  2.2693160013241658e-05  2.2715441465272370e-05  2.2743857937059759e-05  2.2778148160775191e-05  2.2817930739408127e-05  2.2862712188854524e-05  2.2911907506655142e-05  2.2964865636784477e-05  2.3020894509953406e-05  2.3079283470218812e-05  2.3139323066057924e-05  2.3200322880736445e-05  2.3261627756692274e-05  2.3322632164416492e-05  2.3382792078442550e-05  2.3441633688750983e-05  2.3498758503942148e-05  2.3553844745243604e-05  2.3606645271401213e-05  2.3656982545519408e-05  2.3704741326965264e-05  2.3749859842594748e-05  2.3792320176564554e-05  2.3832138539924736e-05  2.3869355964909585e-05  2.3904029836571717e-05  2.3936226543298683e-05  2.3966015409239721e-05  2.3993463971952189e-05  2.4018634589760991e-05  2.4041582304727802e-05  2.4062353846443392e-05  2.4080987636046483e-05  2.4097514635754537e-05  2.4111959883783261e-05  2.4124344555212949e-05  2.4134688393940267e-05  2.4143012367593117e-05  2.4149341404911481e-05  2.4153707082827240e-05  2.4156150138048157e-05  2.4156722685630689e-05  2.4155490035581302e-05  2.4152532009135539e-05  2.4147943670456970e-05  2.4141835408505599e-05  2.4134332328879195e-05  2.4125572947031592e-05  2.4115707211987796e-05  2.4104893931935394e-05  2.4093297717112801e-05  2.4081085597434430e-05  2.4068423507810049e-05  2.4055472858519060e-05  2.4042387417202165e-05  2.4029310720124855e-05  2.4016374202159664e-05  2.4003696188273822e-05  2.3991381827112115e-05  2.3979523974255198e-05  2.3968204954935346e-05  2.3957499060064624e-05  2.3947475561963310e-05  2.3938201983043457e-05  2.3929747316562729e-05  2.3922184886542632e-05  2.3915594545493987e-05  2.3910063943490202e-05  2.3905688658581148e-05  2.3902571053322267e-05  2.3900817810819741e-05  2.3900536200600768e-05  2.3901829223392747e-05  2.3904789877554409e-05  2.3909494871270350e-05  2.3915998166804728e-05  2.3924324780055636e-05  2.3934465265757401e-05  2.3946371293402400e-05  2.3959952661350545e-05  2.3975076009678677e-05  2.3991565382174374e-05  2.4009204663388579e-05  2.4027741788849115e-05  2.4046894507452894e-05  2.4066357376354658e-05  2.4085809600063792e-05  2.4104923293318846e-05  2.4123371753735803e-05  2.4140837372879796e-05  2.4157018887273929e-05  2.4171637766123979e-05  2.4184443643773737e-05  2.4195218831384479e-05  2.4203782091100902e-05  2.4209992020256090e-05  2.4213750412008842e-05  2.4215004956495817e-05  2.2674840142972807e-05  2.2678027457385356e-05  2.2687529540177215e-05  2.2703304275882074e-05  2.2725260502228536e-05  2.2753227529423485e-05  2.2786931449527221e-05  2.2825986998633532e-05  2.2869905268932185e-05  2.2918112250704367e-05  2.2969971988289507e-05  2.3024809826721139e-05  2.3081933737711277e-05  2.3140653507651594e-05  2.3200298178136734e-05  2.3260231897216213e-05  2.3319867864422774e-05  2.3378679754182110e-05  2.3436210001743334e-05  2.3492074559831678e-05  2.3545964056664569e-05  2.3597641604256626e-05  2.3646937758450316e-05  2.3693743292144632e-05  2.3738000508850447e-05  2.3779693808624529e-05  2.3818840144068035e-05  2.3855479893596254e-05  2.3889668553346460e-05  2.3921469523967100e-05  2.3950948154881827e-05  2.3978167112348973e-05  2.4003183060839952e-05  2.4026044589440288e-05  2.4046791274117677e-05  2.4065453740092070e-05  2.4082054573319839e-05  2.4096609923559589e-05  2.4109131641212178e-05  2.4119629794065010e-05  2.4128115416533810e-05  2.4134603351686195e-05  2.4139115054374181e-05  2.4141681231782707e-05  2.4142344205698043e-05  2.4141159889383893e-05  2.4138199282127504e-05  2.4133549397583194e-05  2.4127313559378896e-05  2.4119611020244862e-05  2.4110575889833675e-05  2.4100355391263110e-05  2.4089107506005592e-05  2.4076998108698604e-05  2.4064197734331006e-05  2.4050878155889008e-05  2.4037208976475038e-05  2.4023354452046568e-05  2.4009470756156862e-05  2.3995703874865680e-05  2.3982188278694405e-05  2.3969046461520710e-05  2.3956389367876248e-05  2.3944317655862687e-05  2.3932923669258240e-05  2.3922293925867202e-05  2.3912511875728935e-05  2.3903660647313305e-05  2.3895825485681940e-05  2.3889095595519786e-05  2.3883565133961978e-05  2.3879333151637658e-05  2.3876502352199365e-05  2.3875176626347633e-05  2.3875457410418784e-05  2.3877439015532913e-05  2.3881203164097471e-05  2.3886813048967448e-05  2.3894307289934352e-05  2.3903694196491145e-05  2.3914946750525042e-05  2.3927998695341117e-05  2.3942742058454454e-05  2.3959026348123111e-05  2.3976659553910591e-05  2.3995410958722825e-05  2.4015015644874213e-05  2.4035180461818143e-05  2.4055591129695709e-05  2.4075920090165657e-05  2.4095834689963217e-05  2.4115005294841092e-05  2.4133112979046214e-05  2.4149856511558691e-05  2.4164958455812120e-05  2.4178170304475954e-05  2.4189276674391149e-05  2.4198098672275220e-05  2.4204496565830817e-05  2.4208371735296888e-05  2.4209667291204123e-05  2.2689019575757596e-05  2.2692154118751363e-05  2.2701493233136580e-05  2.2716983147618693e-05  2.2738513567012689e-05  2.2765894697506281e-05  2.2798839941578829e-05  2.2836960766505422e-05  2.2879774258864459e-05  2.2926719690016116e-05  2.2977179281816613e-05  2.3030499514360137e-05  2.3086011195553249e-05  2.3143047900696100e-05  2.3200962888251918e-05  2.3259144447553699e-05  2.3317029291598559e-05  2.3374113404902443e-05  2.3429959793378728e-05  2.3484202803471988e-05  2.3536548977595977e-05  2.3586774705109715e-05  2.3634721158832704e-05  2.3680287152754639e-05  2.3723420615520623e-05  2.3764109358932722e-05  2.3802371750681244e-05  2.3838247796982045e-05  2.3871791022737091e-05  2.3903061419001932e-05  2.3932119619854882e-05  2.3959022378732557e-05  2.3983819339989621e-05  2.4006551044564484e-05  2.4027248067518471e-05  2.4045931157555221e-05  2.4062612231955797e-05  2.4077296072325788e-05  2.4089982565009274e-05  2.4100669333105447e-05  2.4109354613119057e-05  2.4116040237066284e-05  2.4120734589351851e-05  2.4123455416326093e-05  2.4124232374961536e-05  2.4123109215868824e-05  2.4120145505665835e-05  2.4115417805641259e-05  2.4109020239013250e-05  2.4101064399098970e-05  2.4091678576228174e-05  2.4081006312413214e-05  2.4069204328846238e-05  2.4056439910363394e-05  2.4042887870166431e-05  2.4028727253556544e-05  2.4014137967019673e-05  2.3999297534645483e-05  2.3984378184254200e-05  2.3969544448763959e-05  2.3954951434025916e-05  2.3940743854298681e-05  2.3927055874302709e-05  2.3914011727481059e-05  2.3901727009757656e-05  2.3890310483101912e-05  2.3879866169602954e-05  2.3870495479618956e-05  2.3862299100625550e-05  2.3855378378739614e-05  2.3849835952907572e-05  2.3845775451077601e-05  2.3843300125386103e-05  2.3842510385127827e-05  2.3843500276502386e-05  2.3846353050383242e-05  2.3851136046613674e-05  2.3857895198421338e-05  2.3866649516628163e-05  2.3877385944501752e-05  2.3890054975968002e-05  2.3904567400250116e-05  2.3920792475265963e-05  2.3938557743790565e-05  2.3957650597054245e-05  2.3977821569434826e-05  2.3998789226504739e-05  2.4020246398930021e-05  2.4041867427816041e-05  2.4063316031918655e-05  2.4084253388865498e-05  2.4104346041858239e-05  2.4123273296403258e-05  2.4140733850701573e-05  2.4156451497917379e-05  2.4170179836433750e-05  2.4181706011459911e-05  2.4190853569784637e-05  2.4197484511195842e-05  2.4201500527709375e-05  2.4202843237426024e-05  2.2707307306487004e-05  2.2710372888775922e-05  2.2719502657537129e-05  2.2734628505454542e-05  2.2755620336208909e-05  2.2782269693888376e-05  2.2814278097496649e-05  2.2851254719955295e-05  2.2892723905732135e-05  2.2938139947273299e-05  2.2986905578324791e-05  2.3038391354808964e-05  2.3091954394418140e-05  2.3146955946304562e-05  2.3202777644281176e-05  2.3258836214785567e-05  2.3314596190561452e-05  2.3369580068836585e-05  2.3423375426522975e-05  2.3475638721312404e-05  2.3526095783821275e-05  2.3574539270380885e-05  2.3620823553302960e-05  2.3664857655308246e-05  2.3706596886230031e-05  2.3746033824411218e-05  2.3783189219999227e-05  2.3818103301593917e-05  2.3850827858437842e-05  2.3881419360791529e-05  2.3909933280256158e-05  2.3936419684634141e-05  2.3960920110450953e-05  2.3983465660421420e-05  2.4004076231647045e-05  2.4022760751333105e-05  2.4039518278320402e-05  2.4054339818802695e-05  2.4067210701453896e-05  2.4078113359176425e-05  2.4087030370308653e-05  2.4093947620062665e-05  2.4098857452083767e-05  2.4101761689497017e-05  2.4102674414177167e-05  2.4101624402232005e-05  2.4098657123279590e-05  2.4093836221901631e-05  2.4087244412833866e-05  2.4078983738251644e-05  2.4069175156965422e-05  2.4057957461987990e-05  2.4045485554514284e-05  2.4031928137618171e-05  2.4017464929626181e-05  2.4002283531961234e-05  2.3986576115438284e-05  2.3970536108587708e-05  2.3954355078078822e-05  2.3938219982245145e-05  2.3922310953122591e-05  2.3906799721163587e-05  2.3891848742603860e-05  2.3877611026691848e-05  2.3864230594187134e-05  2.3851843435817586e-05  2.3840578785795630e-05  2.3830560486367334e-05  2.3821908198829802e-05  2.3814738217074763e-05  2.3809163662340108e-05  2.3805293881551476e-05  2.3803232933801085e-05  2.3803077126003581e-05  2.3804911644155281e-05  2.3808806414470929e-05  2.3814811411914258e-05  2.3822951705023643e-05  2.3833222578551747e-05  2.3845585103324487e-05  2.3859962521512569e-05  2.3876237783077841e-05  2.3894252506190831e-05  2.3913807544758520e-05  2.3934665236871314e-05  2.3956553288744114e-05  2.3979170131189605e-05  2.4002191481908185e-05  2.4025277767869952e-05  2.4048082016041705e-05  2.4070257811931361e-05  2.4091466953484252e-05  2.4111386487795767e-05  2.4129714901130348e-05  2.4146177327514237e-05  2.4160529735034388e-05  2.4172562128773737e-05  2.4182100861767722e-05  2.4189010158635440e-05  2.4193192929006928e-05  2.4194590916489273e-05  2.2730191564118112e-05  2.2733167741969062e-05  2.2742032668109479e-05  2.2756704406524775e-05  2.2777034729361133e-05  2.2802798657812088e-05  2.2833687762306131e-05  2.2869310422630943e-05  2.2909199475769189e-05  2.2952825538201309e-05  2.2999613522965041e-05  2.3048960248954804e-05  2.3100251861388122e-05  2.3152880446498719e-05  2.3206259495826436e-05  2.3259837843829938e-05  2.3313111584460501e-05  2.3365633438822975e-05  2.3417019151838762e-05  2.3466950707357798e-05  2.3515176403911773e-05  2.3561508069788830e-05  2.3605815879339869e-05  2.3648021346017504e-05  2.3688089111318873e-05  2.3726018132818983e-05  2.3761832814441045e-05  2.3795574534730597e-05  2.3827293929117012e-05  2.3857044181573465e-05  2.3884875487601537e-05  2.3910830768572729e-05  2.3934942649044812e-05  2.3957231653868276e-05  2.3977705539830126e-05  2.3996359645912967e-05  2.4013178125511132e-05  2.4028135911701714e-05  2.4041201261530935e-05  2.4052338725895456e-05  2.4061512396631424e-05  2.4068689290545174e-05  2.4073842740070861e-05  2.4076955670928011e-05  2.4078023657766266e-05  2.4077057658912106e-05  2.4074086341036368e-05  2.4069157914391961e-05  2.4062341410195146e-05  2.4053727344959410e-05  2.4043427733364820e-05  2.4031575432495572e-05  2.4018322826348823e-05  2.4003839889904997e-05  2.3988311705251045e-05  2.3971935535770107e-05  2.3954917594957538e-05  2.3937469670267045e-05  2.3919805775881425e-05  2.3902139008443529e-05  2.3884678764775760e-05  2.3867628450275655e-05  2.3851183762630054e-05  2.3835531581126199e-05  2.3820849431976206e-05  2.3807305440443355e-05  2.3795058627157204e-05  2.3784259364420641e-05  2.3775049783151992e-05  2.3767563915552978e-05  2.3761927374140979e-05  2.3758256404119906e-05  2.3756656201089022e-05  2.3757218456036677e-05  2.3760018169209179e-05  2.3765109857396262e-05  2.3772523358273022e-05  2.3782259503239589e-05  2.3794285979556767e-05  2.3808533727306827e-05  2.3824894212323770e-05  2.3843217880657518e-05  2.3863314034305679e-05  2.3884952276187721e-05  2.3907865562306840e-05  2.3931754781176851e-05  2.3956294666997060e-05  2.3981140756001208e-05  2.4005937025571157e-05  2.4030323820574100e-05  2.4053945674059495e-05  2.4076458668188097e-05  2.4097537049775565e-05  2.4116878903322023e-05  2.4134210781024385e-05  2.4149291281705213e-05  2.4161913647453213e-05  2.4171907499046666e-05  2.4179139854705928e-05  2.4183515577159303e-05  2.4184977395155226e-05  2.2758144997494705e-05  2.2761009146443742e-05  2.2769548553487571e-05  2.2783669750540731e-05  2.2803209794925320e-05  2.2827930771852340e-05  2.2857517274958532e-05  2.2891578960972966e-05  2.2929658512602774e-05  2.2971243928383556e-05  2.3015783475903135e-05  2.3062701790719281e-05  2.3111416064550606e-05  2.3161351666601974e-05  2.3211956720615865e-05  2.3262715161737165e-05  2.3313157756919824e-05  2.3362870600595197e-05  2.3411500727383300e-05  2.3458758688417102e-05  2.3504418167403760e-05  2.3548312921838061e