<?xml version="1.0"?>
<VTKFile type="UnstructuredGrid"  version="0.1"  >
<UnstructuredGrid>
<Piece  NumberOfPoints="10201" NumberOfCells="20000">
<Points>
<DataArray  type="Float64"  NumberOfComponents="3"  format="ascii">0 0 0  0.25 0 0  0.5 0 0  0.75 0 0  1 0 0  1.25 0 0  1.5 0 0  1.75 0 0  2 0 0  2.25 0 0  2.5 0 0  2.75 0 0  3 0 0  3.25 0 0  3.5 0 0  3.75 0 0  4 0 0  4.25 0 0  4.5 0 0  4.75 0 0  5 0 0  5.25 0 0  5.5 0 0  5.75 0 0  6 0 0  6.25 0 0  6.5 0 0  6.75 0 0  7 0 0  7.25 0 0  7.5 0 0  7.75 0 0  8 0 0  8.25 0 0  8.5 0 0  8.75 0 0  9 0 0  9.25 0 0  9.5 0 0  9.75 0 0  10 0 0  10.25 0 0  10.5 0 0  10.75 0 0  11 0 0  11.25 0 0  11.5 0 0  11.75 0 0  12 0 0  12.25 0 0  12.5 0 0  12.75 0 0  13 0 0  13.25 0 0  13.5 0 0  13.75 0 0  14 0 0  14.25 0 0  14.5 0 0  14.75 0 0  15 0 0  15.25 0 0  15.5 0 0  15.75 0 0  16 0 0  16.25 0 0  16.5 0 0  16.75 0 0  17 0 0  17.25 0 0  17.5 0 0  17.75 0 0  18 0 0  18.25 0 0  18.5 0 0  18.75 0 0  19 0 0  19.25 0 0  19.5 0 0  19.75 0 0  20 0 0  20.25 0 0  20.5 0 0  20.75 0 0  21 0 0  21.25 0 0  21.5 0 0  21.75 0 0  22 0 0  22.25 0 0  22.5 0 0  22.75 0 0  23 0 0  23.25 0 0  23.5 0 0  23.75 0 0  24 0 0  24.25 0 0  24.5 0 0  24.75 0 0  25 0 0  0 0.25 0  0.25 0.25 0  0.5 0.25 0  0.75 0.25 0  1 0.25 0  1.25 0.25 0  1.5 0.25 0  1.75 0.25 0  2 0.25 0  2.25 0.25 0  2.5 0.25 0  2.75 0.25 0  3 0.25 0  3.25 0.25 0  3.5 0.25 0  3.75 0.25 0  4 0.25 0  4.25 0.25 0  4.5 0.25 0  4.75 0.25 0  5 0.25 0  5.25 0.25 0  5.5 0.25 0  5.75 0.25 0  6 0.25 0  6.25 0.25 0  6.5 0.25 0  6.75 0.25 0  7 0.25 0  7.25 0.25 0  7.5 0.25 0  7.75 0.25 0  8 0.25 0  8.25 0.25 0  8.5 0.25 0  8.75 0.25 0  9 0.25 0  9.25 0.25 0  9.5 0.25 0  9.75 0.25 0  10 0.25 0  10.25 0.25 0  10.5 0.25 0  10.75 0.25 0  11 0.25 0  11.25 0.25 0  11.5 0.25 0  11.75 0.25 0  12 0.25 0  12.25 0.25 0  12.5 0.25 0  12.75 0.25 0  13 0.25 0  13.25 0.25 0  13.5 0.25 0  13.75 0.25 0  14 0.25 0  14.25 0.25 0  14.5 0.25 0  14.75 0.25 0  15 0.25 0  15.25 0.25 0  15.5 0.25 0  15.75 0.25 0  16 0.25 0  16.25 0.25 0  16.5 0.25 0  16.75 0.25 0  17 0.25 0  17.25 0.25 0  17.5 0.25 0  17.75 0.25 0  18 0.25 0  18.25 0.25 0  18.5 0.25 0  18.75 0.25 0  19 0.25 0  19.25 0.25 0  19.5 0.25 0  19.75 0.25 0  20 0.25 0  20.25 0.25 0  20.5 0.25 0  20.75 0.25 0  21 0.25 0  21.25 0.25 0  21.5 0.25 0  21.75 0.25 0  22 0.25 0  22.25 0.25 0  22.5 0.25 0  22.75 0.25 0  23 0.25 0  23.25 0.25 0  23.5 0.25 0  23.75 0.25 0  24 0.25 0  24.25 0.25 0  24.5 0.25 0  24.75 0.25 0  25 0.25 0  0 0.5 0  0.25 0.5 0  0.5 0.5 0  0.75 0.5 0  1 0.5 0  1.25 0.5 0  1.5 0.5 0  1.75 0.5 0  2 0.5 0  2.25 0.5 0  2.5 0.5 0  2.75 0.5 0  3 0.5 0  3.25 0.5 0  3.5 0.5 0  3.75 0.5 0  4 0.5 0  4.25 0.5 0  4.5 0.5 0  4.75 0.5 0  5 0.5 0  5.25 0.5 0  5.5 0.5 0  5.75 0.5 0  6 0.5 0  6.25 0.5 0  6.5 0.5 0  6.75 0.5 0  7 0.5 0  7.25 0.5 0  7.5 0.5 0  7.75 0.5 0  8 0.5 0  8.25 0.5 0  8.5 0.5 0  8.75 0.5 0  9 0.5 0  9.25 0.5 0  9.5 0.5 0  9.75 0.5 0  10 0.5 0  10.25 0.5 0  10.5 0.5 0  10.75 0.5 0  11 0.5 0  11.25 0.5 0  11.5 0.5 0  11.75 0.5 0  12 0.5 0  12.25 0.5 0  12.5 0.5 0  12.75 0.5 0  13 0.5 0  13.25 0.5 0  13.5 0.5 0  13.75 0.5 0  14 0.5 0  14.25 0.5 0  14.5 0.5 0  14.75 0.5 0  15 0.5 0  15.25 0.5 0  15.5 0.5 0  15.75 0.5 0  16 0.5 0  16.25 0.5 0  16.5 0.5 0  16.75 0.5 0  17 0.5 0  17.25 0.5 0  17.5 0.5 0  17.75 0.5 0  18 0.5 0  18.25 0.5 0  18.5 0.5 0  18.75 0.5 0  19 0.5 0  19.25 0.5 0  19.5 0.5 0  19.75 0.5 0  20 0.5 0  20.25 0.5 0  20.5 0.5 0  20.75 0.5 0  21 0.5 0  21.25 0.5 0  21.5 0.5 0  21.75 0.5 0  22 0.5 0  22.25 0.5 0  22.5 0.5 0  22.75 0.5 0  23 0.5 0  23.25 0.5 0  23.5 0.5 0  23.75 0.5 0  24 0.5 0  24.25 0.5 0  24.5 0.5 0  24.75 0.5 0  25 0.5 0  0 0.75 0  0.25 0.75 0  0.5 0.75 0  0.75 0.75 0  1 0.75 0  1.25 0.75 0  1.5 0.75 0  1.75 0.75 0  2 0.75 0  2.25 0.75 0  2.5 0.75 0  2.75 0.75 0  3 0.75 0  3.25 0.75 0  3.5 0.75 0  3.75 0.75 0  4 0.75 0  4.25 0.75 0  4.5 0.75 0  4.75 0.75 0  5 0.75 0  5.25 0.75 0  5.5 0.75 0  5.75 0.75 0  6 0.75 0  6.25 0.75 0  6.5 0.75 0  6.75 0.75 0  7 0.75 0  7.25 0.75 0  7.5 0.75 0  7.75 0.75 0  8 0.75 0  8.25 0.75 0  8.5 0.75 0  8.75 0.75 0  9 0.75 0  9.25 0.75 0  9.5 0.75 0  9.75 0.75 0  10 0.75 0  10.25 0.75 0  10.5 0.75 0  10.75 0.75 0  11 0.75 0  11.25 0.75 0  11.5 0.75 0  11.75 0.75 0  12 0.75 0  12.25 0.75 0  12.5 0.75 0  12.75 0.75 0  13 0.75 0  13.25 0.75 0  13.5 0.75 0  13.75 0.75 0  14 0.75 0  14.25 0.75 0  14.5 0.75 0  14.75 0.75 0  15 0.75 0  15.25 0.75 0  15.5 0.75 0  15.75 0.75 0  16 0.75 0  16.25 0.75 0  16.5 0.75 0  16.75 0.75 0  17 0.75 0  17.25 0.75 0  17.5 0.75 0  17.75 0.75 0  18 0.75 0  18.25 0.75 0  18.5 0.75 0  18.75 0.75 0  19 0.75 0  19.25 0.75 0  19.5 0.75 0  19.75 0.75 0  20 0.75 0  20.25 0.75 0  20.5 0.75 0  20.75 0.75 0  21 0.75 0  21.25 0.75 0  21.5 0.75 0  21.75 0.75 0  22 0.75 0  22.25 0.75 0  22.5 0.75 0  22.75 0.75 0  23 0.75 0  23.25 0.75 0  23.5 0.75 0  23.75 0.75 0  24 0.75 0  24.25 0.75 0  24.5 0.75 0  24.75 0.75 0  25 0.75 0  0 1 0  0.25 1 0  0.5 1 0  0.75 1 0  1 1 0  1.25 1 0  1.5 1 0  1.75 1 0  2 1 0  2.25 1 0  2.5 1 0  2.75 1 0  3 1 0  3.25 1 0  3.5 1 0  3.75 1 0  4 1 0  4.25 1 0  4.5 1 0  4.75 1 0  5 1 0  5.25 1 0  5.5 1 0  5.75 1 0  6 1 0  6.25 1 0  6.5 1 0  6.75 1 0  7 1 0  7.25 1 0  7.5 1 0  7.75 1 0  8 1 0  8.25 1 0  8.5 1 0  8.75 1 0  9 1 0  9.25 1 0  9.5 1 0  9.75 1 0  10 1 0  10.25 1 0  10.5 1 0  10.75 1 0  11 1 0  11.25 1 0  11.5 1 0  11.75 1 0  12 1 0  12.25 1 0  12.5 1 0  12.75 1 0  13 1 0  13.25 1 0  13.5 1 0  13.75 1 0  14 1 0  14.25 1 0  14.5 1 0  14.75 1 0  15 1 0  15.25 1 0  15.5 1 0  15.75 1 0  16 1 0  16.25 1 0  16.5 1 0  16.75 1 0  17 1 0  17.25 1 0  17.5 1 0  17.75 1 0  18 1 0  18.25 1 0  18.5 1 0  18.75 1 0  19 1 0  19.25 1 0  19.5 1 0  19.75 1 0  20 1 0  20.25 1 0  20.5 1 0  20.75 1 0  21 1 0  21.25 1 0  21.5 1 0  21.75 1 0  22 1 0  22.25 1 0  22.5 1 0  22.75 1 0  23 1 0  23.25 1 0  23.5 1 0  23.75 1 0  24 1 0  24.25 1 0  24.5 1 0  24.75 1 0  25 1 0  0 1.25 0  0.25 1.25 0  0.5 1.25 0  0.75 1.25 0  1 1.25 0  1.25 1.25 0  1.5 1.25 0  1.75 1.25 0  2 1.25 0  2.25 1.25 0  2.5 1.25 0  2.75 1.25 0  3 1.25 0  3.25 1.25 0  3.5 1.25 0  3.75 1.25 0  4 1.25 0  4.25 1.25 0  4.5 1.25 0  4.75 1.25 0  5 1.25 0  5.25 1.25 0  5.5 1.25 0  5.75 1.25 0  6 1.25 0  6.25 1.25 0  6.5 1.25 0  6.75 1.25 0  7 1.25 0  7.25 1.25 0  7.5 1.25 0  7.75 1.25 0  8 1.25 0  8.25 1.25 0  8.5 1.25 0  8.75 1.25 0  9 1.25 0  9.25 1.25 0  9.5 1.25 0  9.75 1.25 0  10 1.25 0  10.25 1.25 0  10.5 1.25 0  10.75 1.25 0  11 1.25 0  11.25 1.25 0  11.5 1.25 0  11.75 1.25 0  12 1.25 0  12.25 1.25 0  12.5 1.25 0  12.75 1.25 0  13 1.25 0  13.25 1.25 0  13.5 1.25 0  13.75 1.25 0  14 1.25 0  14.25 1.25 0  14.5 1.25 0  14.75 1.25 0  15 1.25 0  15.25 1.25 0  15.5 1.25 0  15.75 1.25 0  16 1.25 0  16.25 1.25 0  16.5 1.25 0  16.75 1.25 0  17 1.25 0  17.25 1.25 0  17.5 1.25 0  17.75 1.25 0  18 1.25 0  18.25 1.25 0  18.5 1.25 0  18.75 1.25 0  19 1.25 0  19.25 1.25 0  19.5 1.25 0  19.75 1.25 0  20 1.25 0  20.25 1.25 0  20.5 1.25 0  20.75 1.25 0  21 1.25 0  21.25 1.25 0  21.5 1.25 0  21.75 1.25 0  22 1.25 0  22.25 1.25 0  22.5 1.25 0  22.75 1.25 0  23 1.25 0  23.25 1.25 0  23.5 1.25 0  23.75 1.25 0  24 1.25 0  24.25 1.25 0  24.5 1.25 0  24.75 1.25 0  25 1.25 0  0 1.5 0  0.25 1.5 0  0.5 1.5 0  0.75 1.5 0  1 1.5 0  1.25 1.5 0  1.5 1.5 0  1.75 1.5 0  2 1.5 0  2.25 1.5 0  2.5 1.5 0  2.75 1.5 0  3 1.5 0  3.25 1.5 0  3.5 1.5 0  3.75 1.5 0  4 1.5 0  4.25 1.5 0  4.5 1.5 0  4.75 1.5 0  5 1.5 0  5.25 1.5 0  5.5 1.5 0  5.75 1.5 0  6 1.5 0  6.25 1.5 0  6.5 1.5 0  6.75 1.5 0  7 1.5 0  7.25 1.5 0  7.5 1.5 0  7.75 1.5 0  8 1.5 0  8.25 1.5 0  8.5 1.5 0  8.75 1.5 0  9 1.5 0  9.25 1.5 0  9.5 1.5 0  9.75 1.5 0  10 1.5 0  10.25 1.5 0  10.5 1.5 0  10.75 1.5 0  11 1.5 0  11.25 1.5 0  11.5 1.5 0  11.75 1.5 0  12 1.5 0  12.25 1.5 0  12.5 1.5 0  12.75 1.5 0  13 1.5 0  13.25 1.5 0  13.5 1.5 0  13.75 1.5 0  14 1.5 0  14.25 1.5 0  14.5 1.5 0  14.75 1.5 0  15 1.5 0  15.25 1.5 0  15.5 1.5 0  15.75 1.5 0  16 1.5 0  16.25 1.5 0  16.5 1.5 0  16.75 1.5 0  17 1.5 0  17.25 1.5 0  17.5 1.5 0  17.75 1.5 0  18 1.5 0  18.25 1.5 0  18.5 1.5 0  18.75 1.5 0  19 1.5 0  19.25 1.5 0  19.5 1.5 0  19.75 1.5 0  20 1.5 0  20.25 1.5 0  20.5 1.5 0  20.75 1.5 0  21 1.5 0  21.25 1.5 0  21.5 1.5 0  21.75 1.5 0  22 1.5 0  22.25 1.5 0  22.5 1.5 0  22.75 1.5 0  23 1.5 0  23.25 1.5 0  23.5 1.5 0  23.75 1.5 0  24 1.5 0  24.25 1.5 0  24.5 1.5 0  24.75 1.5 0  25 1.5 0  0 1.75 0  0.25 1.75 0  0.5 1.75 0  0.75 1.75 0  1 1.75 0  1.25 1.75 0  1.5 1.75 0  1.75 1.75 0  2 1.75 0  2.25 1.75 0  2.5 1.75 0  2.75 1.75 0  3 1.75 0  3.25 1.75 0  3.5 1.75 0  3.75 1.75 0  4 1.75 0  4.25 1.75 0  4.5 1.75 0  4.75 1.75 0  5 1.75 0  5.25 1.75 0  5.5 1.75 0  5.75 1.75 0  6 1.75 0  6.25 1.75 0  6.5 1.75 0  6.75 1.75 0  7 1.75 0  7.25 1.75 0  7.5 1.75 0  7.75 1.75 0  8 1.75 0  8.25 1.75 0  8.5 1.75 0  8.75 1.75 0  9 1.75 0  9.25 1.75 0  9.5 1.75 0  9.75 1.75 0  10 1.75 0  10.25 1.75 0  10.5 1.75 0  10.75 1.75 0  11 1.75 0  11.25 1.75 0  11.5 1.75 0  11.75 1.75 0  12 1.75 0  12.25 1.75 0  12.5 1.75 0  12.75 1.75 0  13 1.75 0  13.25 1.75 0  13.5 1.75 0  13.75 1.75 0  14 1.75 0  14.25 1.75 0  14.5 1.75 0  14.75 1.75 0  15 1.75 0  15.25 1.75 0  15.5 1.75 0  15.75 1.75 0  16 1.75 0  16.25 1.75 0  16.5 1.75 0  16.75 1.75 0  17 1.75 0  17.25 1.75 0  17.5 1.75 0  17.75 1.75 0  18 1.75 0  18.25 1.75 0  18.5 1.75 0  18.75 1.75 0  19 1.75 0  19.25 1.75 0  19.5 1.75 0  19.75 1.75 0  20 1.75 0  20.25 1.75 0  20.5 1.75 0  20.75 1.75 0  21 1.75 0  21.25 1.75 0  21.5 1.75 0  21.75 1.75 0  22 1.75 0  22.25 1.75 0  22.5 1.75 0  22.75 1.75 0  23 1.75 0  23.25 1.75 0  23.5 1.75 0  23.75 1.75 0  24 1.75 0  24.25 1.75 0  24.5 1.75 0  24.75 1.75 0  25 1.75 0  0 2 0  0.25 2 0  0.5 2 0  0.75 2 0  1 2 0  1.25 2 0  1.5 2 0  1.75 2 0  2 2 0  2.25 2 0  2.5 2 0  2.75 2 0  3 2 0  3.25 2 0  3.5 2 0  3.75 2 0  4 2 0  4.25 2 0  4.5 2 0  4.75 2 0  5 2 0  5.25 2 0  5.5 2 0  5.75 2 0  6 2 0  6.25 2 0  6.5 2 0  6.75 2 0  7 2 0  7.25 2 0  7.5 2 0  7.75 2 0  8 2 0  8.25 2 0  8.5 2 0  8.75 2 0  9 2 0  9.25 2 0  9.5 2 0  9.75 2 0  10 2 0  10.25 2 0  10.5 2 0  10.75 2 0  11 2 0  11.25 2 0 
[...]
<PointData  Scalars="f_26"> 
<DataArray  type="Float64"  Name="f_26"  format="ascii">2.2027629462374254e-05  2.2029786935069058e-05  2.2034865727443170e-05  2.2042600786095891e-05  2.2052534131754639e-05  2.2064263058608483e-05  2.2077559039952723e-05  2.2092387259136970e-05  2.2108854164953373e-05  2.2127104942855282e-05  2.2147185561934420e-05  2.2168906215453540e-05  2.2191778944058870e-05  2.2215092857634532e-05  2.2238117903895946e-05  2.2260339022544420e-05  2.2281596060291001e-05  2.2302081262759926e-05  2.2322258514717073e-05  2.2342800495599403e-05  2.2364558916763879e-05  2.2388486578597428e-05  2.2415444761492773e-05  2.2445952031064317e-05  2.2480026622734072e-05  2.2517238251207139e-05  2.2556945207995348e-05  2.2598568504591272e-05  2.2641737174624263e-05  2.2686235453539410e-05  2.2731818197442191e-05  2.2778034240629027e-05  2.2824173408376556e-05  2.2869362082843791e-05  2.2912735893705083e-05  2.2953586452614215e-05  2.2991422791339631e-05  2.3025950611790918e-05  2.3057002604567623e-05  2.3084459281961822e-05  2.3108202024894511e-05  2.3128123132071870e-05  2.3144177133356499e-05  2.3156431124682324e-05  2.3165092528049908e-05  2.3170531242516235e-05  2.3173306093839870e-05  2.3174154704298260e-05  2.3173886609259293e-05  2.3173183200687937e-05  2.3172403325990171e-05  2.3171512228725872e-05  2.3170166494979628e-05  2.3167887514183893e-05  2.3164218250767733e-05  2.3158784707315065e-05  2.3151255030709776e-05  2.3141271478385058e-05  2.3128447475325615e-05  2.3112442272294740e-05  2.3093043310670650e-05  2.3070202424890148e-05  2.3044045170564936e-05  2.3014892917897055e-05  2.2983291844230074e-05  2.2950006338315932e-05  2.2915957990455640e-05  2.2882132523174037e-05  2.2849471976190479e-05  2.2818744730205256e-05  2.2790399031851144e-05  2.2764451709994310e-05  2.2740482935037137e-05  2.2717759666953942e-05  2.2695427436375755e-05  2.2672672884920701e-05  2.2648807521404319e-05  2.2623304533446776e-05  2.2595858668680585e-05  2.2566498885615975e-05  2.2535693520074742e-05  2.2504339547078801e-05  2.2473595842797377e-05  2.2444640318710710e-05  2.2418458170113883e-05  2.2395688412039875e-05  2.2376511747963020e-05  2.2360610773023265e-05  2.2347249323215171e-05  2.2335440437302479e-05  2.2324127411893998e-05  2.2312361098543962e-05  2.2299498174539304e-05  2.2285380876084985e-05  2.2270393938142576e-05  2.2255347530125811e-05  2.2241254105482613e-05  2.2229122655438578e-05  2.2219843663099029e-05  2.2214154993486240e-05  2.2212689015514765e-05  2.2029221958529693e-05  2.2031026732554263e-05  2.2036009181060697e-05  2.2043721316246976e-05  2.2053664536960376e-05  2.2065421154269699e-05  2.2078750083161372e-05  2.2093601836692546e-05  2.2110065285496552e-05  2.2128268465986105e-05  2.2148249019096490e-05  2.2169825231150843e-05  2.2192533528149696e-05  2.2215695572957346e-05  2.2238611011419001e-05  2.2260784171059969e-05  2.2282063194910294e-05  2.2302639898075934e-05  2.2322969203649480e-05  2.2343704930001547e-05  2.2365673849384048e-05  2.2389809724917117e-05  2.2416972078386048e-05  2.2447693505315082e-05  2.2482006194389026e-05  2.2519475379125051e-05  2.2559429855525983e-05  2.2601246343918913e-05  2.2644515247578207e-05  2.2689005072401171e-05  2.2734482192840513e-05  2.2780526399417710e-05  2.2826464115159795e-05  2.2871451361564913e-05  2.2914640731380450e-05  2.2955329912613748e-05  2.2993028856655145e-05  2.3027445045299589e-05  2.3058417810704913e-05  2.3085838786148408e-05  2.3109599634362951e-05  2.3129595747985013e-05  2.3145775115287170e-05  2.3158191317988366e-05  2.3167035530740507e-05  2.3172660325440470e-05  2.3175605577506853e-05  2.3176589724555403e-05  2.3176408126513735e-05  2.3175738287627364e-05  2.3174944997509656e-05  2.3174003026432571e-05  2.3172575622870418e-05  2.3170185286946624e-05  2.3166372525029167e-05  2.3160763658947373e-05  2.3153036656333866e-05  2.3142853735465115e-05  2.3129852624027115e-05  2.3113715612263102e-05  2.3094249319888139e-05  2.3071417207629402e-05  2.3045343021609686e-05  2.3016330306614896e-05  2.2984896850455407e-05  2.2951778904965440e-05  2.2917877164113359e-05  2.2884162612817763e-05  2.2851565552249375e-05  2.2820846976822687e-05  2.2792456724891991e-05  2.2766423389186976e-05  2.2742343328522025e-05  2.2719495632438137e-05  2.2697030136626640e-05  2.2674133683501985e-05  2.2650121567636666e-05  2.2624479788932517e-05  2.2596922233423768e-05  2.2567492505730628e-05  2.2536659550425663e-05  2.2505307631044854e-05  2.2474577276648225e-05  2.2445627775415899e-05  2.2419427955022826e-05  2.2396608074394013e-05  2.2377352803955229e-05  2.2361357880887358e-05  2.2347900517143182e-05  2.2336005232371700e-05  2.2324630154374609e-05  2.2312844649495121e-05  2.2300018567528771e-05  2.2285993462674550e-05  2.2271139870972749e-05  2.2256246787441812e-05  2.2242304071865284e-05  2.2230297294648601e-05  2.2221086641696997e-05  2.2215345579973021e-05  2.2213472796483586e-05  2.2032854919220329e-05  2.2034558031122243e-05  2.2039453308831177e-05  2.2047115453313702e-05  2.2057050143691414e-05  2.2068837507256420e-05  2.2082222229601359e-05  2.2097125609145849e-05  2.2113593693514441e-05  2.2131706965880414e-05  2.2151469287445284e-05  2.2172698992937123e-05  2.2194974865372714e-05  2.2217695064654830e-05  2.2240248910863187e-05  2.2262218548014400e-05  2.2283499578465527e-05  2.2304294154731682e-05  2.2325032778583942e-05  2.2346318459995447e-05  2.2368916446842283e-05  2.2393710966559504e-05  2.2421542446187748e-05  2.2452952572396367e-05  2.2487984563104114e-05  2.2526183890840893e-05  2.2566814541674352e-05  2.2609159411798594e-05  2.2652723288194372e-05  2.2697232583224784e-05  2.2742468534566729e-05  2.2788072231731771e-05  2.2833454043213827e-05  2.2877851222874181e-05  2.2920477019366482e-05  2.2960663783076956e-05  2.2997936635853756e-05  2.3032011861232946e-05  2.3062742878064074e-05  2.3090043091399519e-05  2.3113824993078356e-05  2.3133991581483881e-05  2.3150478519185028e-05  2.3163308903897075e-05  2.3172632361011747e-05  2.3178755793281530e-05  2.3182173084101531e-05  2.3183559003846675e-05  2.3183672379110985e-05  2.3183167971741965e-05  2.3182405375644425e-05  2.3181368515235539e-05  2.3179735857673053e-05  2.3177043145259333e-05  2.3172839413685124e-05  2.3166760559491994e-05  2.3158506332502741e-05  2.3147780064865567e-05  2.3134277346352108e-05  2.3117745774238797e-05  2.3098051615445338e-05  2.3075195107885047e-05  2.3049298272978262e-05  2.3020621759174436e-05  2.2989613993218389e-05  2.2956939561122523e-05  2.2923442747729427e-05  2.2890054704041904e-05  2.2857675103933814e-05  2.2827041539297000e-05  2.2798594703824649e-05  2.2772374865668253e-05  2.2748006799728237e-05  2.2724801301931520e-05  2.2701931510926369e-05  2.2678598404353117e-05  2.2654132620636885e-05  2.2628050370146243e-05  2.2600113854048104e-05  2.2570416670123503e-05  2.2539452925552148e-05  2.2508092446747105e-05  2.2477428215812840e-05  2.2448556967817328e-05  2.2422388442704559e-05  2.2399513661452142e-05  2.2380108438556046e-05  2.2363887034526180e-05  2.2350158738645127e-05  2.2337984709713916e-05  2.2326367365487825e-05  2.2314429947797329e-05  2.2301592842835853e-05  2.2287723336349936e-05  2.2273179256327801e-05  2.2258700769905065e-05  2.2245207183512196e-05  2.2233608582730365e-05  2.2224696421929635e-05  2.2219089046863689e-05  2.2217169445185748e-05  2.2038745656307964e-05  2.2040384057162689e-05  2.2045167556197869e-05  2.2052717518368259e-05  2.2062575722795179e-05  2.2074343519301677e-05  2.2087761979765082e-05  2.2102718044853024e-05  2.2119195726338921e-05  2.2137200933288903e-05  2.2156678026890698e-05  2.2177431950054682e-05  2.2199092245552548e-05  2.2221166414481858e-05  2.2243182870922890e-05  2.2264851416349572e-05  2.2286149366176318e-05  2.2307300606852505e-05  2.2328702168312606e-05  2.2350883592138179e-05  2.2374518591367148e-05  2.2400409216310142e-05  2.2429347070931919e-05  2.2461862075591201e-05  2.2497997990969705e-05  2.2537274438519091e-05  2.2578879288730341e-05  2.2621979847394898e-05  2.2665967515648995e-05  2.2710505136700807e-05  2.2755385494816673e-05  2.2800329444543238e-05  2.2844866391503794e-05  2.2888356602516361e-05  2.2930111607524470e-05  2.2969524191865421e-05  2.3006147103785482e-05  2.3039708570059388e-05  2.3070075941610992e-05  2.3097185398733840e-05  2.3120973097886275e-05  2.3141351743084872e-05  2.3158243530046173e-05  2.3171636063701311e-05  2.3181628486730910e-05  2.3188468313171543e-05  2.3192583646275018e-05  2.3194580450007051e-05  2.3195155100542389e-05  2.3194919807122810e-05  2.3194221136852453e-05  2.3193057847854805e-05  2.3191138105311179e-05  2.3188025723002428e-05  2.3183287104069842e-05  2.3176570582628091e-05  2.3167600697210330e-05  2.3156132417624629e-05  2.3141939953832326e-05  2.3124863285154551e-05  2.3104853675398015e-05  2.3081963174924669e-05  2.3056310981763487e-05  2.3028097966666782e-05  2.2997677182981674e-05  2.2965614960380014e-05  2.2932678235835438e-05  2.2899744216382133e-05  2.2867670800997305e-05  2.2837159727682932e-05  2.2808629373173206e-05  2.2782123533242910e-05  2.2757297957938805e-05  2.2733508471015154e-05  2.2709970391453938e-05  2.2685918437501135e-05  2.2660718232306257e-05  2.2633938384168375e-05  2.2605415821554853e-05  2.2575320437536094e-05  2.2544186375347108e-05  2.2512861881275741e-05  2.2482362900653917e-05  2.2453682064718337e-05  2.2427628836051323e-05  2.2404722471532917e-05  2.2385111445245346e-05  2.2368528174039952e-05  2.2354331745327880e-05  2.2341650115882791e-05  2.2329566148222625e-05  2.2317295658431690e-05  2.2304346031144173e-05  2.2290634701266640e-05  2.2276509403784659e-05  2.2262639994736600e-05  2.2249836944204767e-05  2.2238892635645456e-05  2.2230496341812349e-05  2.2225196640595837e-05  2.2223356610797933e-05  2.2046932727348959e-05  2.2048491267515847e-05  2.2053100289092420e-05  2.2060433760425587e-05  2.2070092182594342e-05  2.2081725001418544e-05  2.2095091573577820e-05  2.2110053723681899e-05  2.2126527340862727e-05  2.2144425697089365e-05  2.2163610649807966e-05  2.2183855254206734e-05  2.2204836089209520e-05  2.2226186858193015e-05  2.2247608675785076e-05  2.2268976184978949e-05  2.2290374534682797e-05  2.2312057855234891e-05  2.2334383507683716e-05  2.2357792126059732e-05  2.2382843315207207e-05  2.2410226308094498e-05  2.2440647086326659e-05  2.2474590058668933e-05  2.2512080779529364e-05  2.2552613982008234e-05  2.2595314775454850e-05  2.2639246549909393e-05  2.2683687450246582e-05  2.2728227140601361e-05  2.2772661483317247e-05  2.2816793895683622e-05  2.2860289457840070e-05  2.2902657541040227e-05  2.2943335698149600e-05  2.2981798672618444e-05  2.3017637353367169e-05  2.3050591080065323e-05  2.3080532384658974e-05  2.3107409189335997e-05  2.3131173167419127e-05  2.3151743812301589e-05  2.3169032254363017e-05  2.3182997751396046e-05  2.3193698320908233e-05  2.3201327655947113e-05  2.3206242746330105e-05  2.3208961974160410e-05  2.3210093516781517e-05  2.3210186573670877e-05  2.3209568974501853e-05  2.3208264582973388e-05  2.3206030600796780e-05  2.3202476148590265e-05  2.3197191437308153e-05  2.3189832292307743e-05  2.3180139080825631e-05  2.3167914509705387e-05  2.3153015907702252e-05  2.3135384590207233e-05  2.3115064241266093e-05  2.3092161398211421e-05  2.3066789816695057e-05  2.3039083817735180e-05  2.3009293147481735e-05  2.2977879854856220e-05  2.2945530684741456e-05  2.2913068465515184e-05  2.2881308106498675e-05  2.2850909077645572e-05  2.2822254156112733e-05  2.2795374735431912e-05  2.2769947365959913e-05  2.2745375274811870e-05  2.2720931562593588e-05  2.2695909362814839e-05  2.2669737614136365e-05  2.2642064414003023e-05  2.2612823684344435e-05  2.2582276144862190e-05  2.2550998710482579e-05  2.2519805043587253e-05  2.2489606213479965e-05  2.2461255062675649e-05  2.2435425367351850e-05  2.2412534429409864e-05  2.2392682426799808e-05  2.2375614215932169e-05  2.2360752691589689e-05  2.2347323560607396e-05  2.2334528860913179e-05  2.2321714760215619e-05  2.2308506592403098e-05  2.2294890393611208e-05  2.2281205667015589e-05  2.2268038206993265e-05  2.2256065810186061e-05  2.2245935808969877e-05  2.2238208961404101e-05  2.2233339943608943e-05  2.2231644363210153e-05  2.2057278454864634e-05  2.2058735612756138e-05  2.2063099849271218e-05  2.2070100609106712e-05  2.2079410955032563e-05  2.2090750895871548e-05  2.2103924629342982e-05  2.2118792241353372e-05  2.2135214494882902e-05  2.2153010944131302e-05  2.2171947097498404e-05  2.2191744281587545e-05  2.2212110979691132e-05  2.2232805637398936e-05  2.2253715764742200e-05  2.2274902147993090e-05  2.2296574365260402e-05  2.2319020639520537e-05  2.2342550933148129e-05  2.2367502866465117e-05  2.2394303087270274e-05  2.2423501625088661e-05  2.2455683949852260e-05  2.2491253730028780e-05  2.2530198515804211e-05  2.2571995443061447e-05  2.2615738239624738e-05  2.2660424931664112e-05  2.2705246628749307e-05  2.2749724766156563e-05  2.2793647945656022e-05  2.2836889941507297e-05  2.2879247738456376e-05  2.2920387366958989e-05  2.2959888246860536e-05  2.2997324388919589e-05  2.3032335190068808e-05  2.3064668542733842e-05  2.3094186562251294e-05  2.3120826517274498e-05  2.3144535751992050e-05  2.3165230703246196e-05  2.3182814578599959e-05  2.3197233689248675e-05  2.3208528245285522e-05  2.3216860765973248e-05  2.3222529037268009e-05  2.3225959211808505e-05  2.3227653859364598e-05  2.3228081541837378e-05  2.3227545664398560e-05  2.3226104720964628e-05  2.3223583481735636e-05  2.3219652777589967e-05  2.3213931033444005e-05  2.3206071231520771e-05  2.3195810410622409e-05  2.3182980605177977e-05  2.3167509872610994e-05  2.3149432506311227e-05  2.3128876767155046e-05  2.3105997550478615e-05  2.3080902585733939e-05  2.3053665484592411e-05  2.3024442552629503e-05  2.2993602569653094e-05  2.2961762434292769e-05  2.2929699690181330e-05  2.2898193013269497e-05  2.2867860389988540e-05  2.2839039520390439e-05  2.2811730218818977e-05  2.2785609220950891e-05  2.2760117117019806e-05  2.2734593044614508e-05  2.2708413547929771e-05  2.2681103266555279e-05  2.2652417533012091e-05  2.2622402146556006e-05  2.2591410077982037e-05  2.2560052967935885e-05  2.2529095130698055e-05  2.2499322204746010e-05  2.2471423091266627e-05  2.2445911625679926e-05  2.2423081222065022e-05  2.2402966719399667e-05  2.2385318763797323e-05  2.2369633574952639e-05  2.2355259753494090e-05  2.2341550204607469e-05  2.2328008730772954e-05  2.2314396255202174e-05  2.2300774952946330e-05  2.2287474952441703e-05  2.2274991785900460e-05  2.2263863410915972e-05  2.2254585049215316e-05  2.2247579455400555e-05  2.2243192354035549e-05  2.2241671333883676e-05  2.2069444208226553e-05  2.2070789369140931e-05  2.2074859295319781e-05  2.2081437589777823e-05  2.2090272889695978e-05  2.2101166425994294e-05  2.2113988242669182e-05  2.2128626096897243e-05  2.2144915650739099e-05  2.2162602957656737e-05  2.2181360309762796e-05  2.2200843990960705e-05  2.2220773256479054e-05  2.2241013180384792e-05  2.2261629459303514e-05  2.2282870885069569e-05  2.2305076462179538e-05  2.2328567587559689e-05  2.2353596867622880e-05  2.2380383331674585e-05  2.2409202592060137e-05  2.2440444097963046e-05  2.2474546869080960e-05  2.2511808226563755e-05  2.2552165391490146e-05  2.2595091513741412e-05  2.2639689158516012e-05  2.2684943238419864e-05  2.2730000111830600e-05  2.2774329362797810e-05  2.2817702461122540e-05  2.2860040387804986e-05  2.2901251197575679e-05  2.2941148742442208e-05  2.2979459277485290e-05  2.3015869787299248e-05  2.3050080191262767e-05  2.3081846202537090e-05  2.3111001370678330e-05  2.3137442030087560e-05  2.3161081179021127e-05  2.3181814579751600e-05  2.3199538155498672e-05  2.3214203280722077e-05  2.3225862412185924e-05  2.3234680300701428e-05  2.3240922302363593e-05  2.3244935099111550e-05  2.3247113390985796e-05  2.3247834920376989e-05  2.3247371604564610e-05  2.3245819202828096e-05  2.3243080586492551e-05  2.3238899198194820e-05  2.3232924245945128e-05  2.3224794815232334e-05  2.3214221310151051e-05  2.3201036618251837e-05  2.3185212977114178e-05  2.3166855449386402e-05  2.3146159416239237e-05  2.3123319617390295e-05  2.3098444024282415e-05  2.3071565853483925e-05  2.3042773601005054e-05  2.3012364513799759e-05  2.2980900267958506e-05  2.2949123240575720e-05  2.2917784707020385e-05  2.2887467270046688e-05  2.2858460749331334e-05  2.2830717514030714e-05  2.2803890473765602e-05  2.2777438527351038e-05  2.2750765036260942e-05  2.2723347475674186e-05  2.2694833361358016e-05  2.2665106817787784e-05  2.2634330620388916e-05  2.2602939754910027e-05  2.2571565262307059e-05  2.2540910108963684e-05  2.2511626460229569e-05  2.2484232213510133e-05  2.2459073747123838e-05  2.2436312680295450e-05  2.2415911223652592e-05  2.2397622676466543e-05  2.2381022021100622e-05  2.2365594838874334e-05  2.2350860744225720e-05  2.2336489728700427e-05  2.2322377192861832e-05  2.2308655593535314e-05  2.2295640563863555e-05  2.2283736836426668e-05  2.2273349014188334e-05  2.2264832514208557e-05  2.2258484395064549e-05  2.2254546661212636e-05  2.2253194374988485e-05  2.2082931782277810e-05  2.2084169646866261e-05  2.2087930533439864e-05  2.2094047503826890e-05  2.2102338591049369e-05  2.2112683121518914e-05  2.2125024704687429e-05  2.2139302336898229e-05  2.2155362661411966e-05  2.2172915194054059e-05  2.2191562986622942e-05  2.2210899957966611e-05  2.2230638900925660e-05  2.2250723091411890e-05  2.2271367460829947e-05  2.2292987921659334e-05  2.2316042210854543e-05  2.2340878551223304e-05  2.2367683119227175e-05  2.2396543135613179e-05  2.2427568346611785e-05  2.2460973133475706e-05  2.2497036546558770e-05  2.2535939026750756e-05  2.2577566562502850e-05  2.2621406017548727e-05  2.2666608018293275e-05  2.2712195964826599e-05  2.2757316877980150e-05  2.2801409912791662e-05  2.2844221223140247e-05  2.2885690949613482e-05  2.2925807518635386e-05  2.2964513249582953e-05  2.3001678612158131e-05  2.3037114158334658e-05  2.3070593727098313e-05  2.3101884140285308e-05  2.3130775136978486e-05  2.3157090393725005e-05  2.3180672876818044e-05  2.3201373316474776e-05  2.3219075991788914e-05  2.3233752511749714e-05  2.3245496823006314e-05  2.3254512255151364e-05  2.3261067498507221e-05  2.3265457570839371e-05  2.3267983716852404e-05  2.3268933127510572e-05  2.3268538128688784e-05  2.3266923763548383e-05  2.3264067913154914e-05  2.3259787643544210e-05  2.3253763072786418e-05  2.3245611605554540e-05  2.3234996614002623e-05  2.3221720660269426e-05  2.3205765531272202e-05  2.3187276662690265e-05  2.3166496158243473e-05  2.3143654112580112e-05  2.3118875034014924e-05  2.3092185619062030e-05  2.3063644428024001e-05  2.3033504456766447e-05  2.3002284239764624e-05  2.2970694226619108e-05  2.2939461555594263e-05  2.2909139279642765e-05  2.2879972202150475e-05  2.2851857649240704e-05  2.2824405997121353e-05  2.2797073535818773e-05  2.2769316633385982e-05  2.2740717199331468e-05  2.2711058059914119e-05  2.2680360963880113e-05  2.2648900667983890e-05  2.2617176427854768e-05  2.2585820320394669e-05  2.2555466815940819e-05  2.2526640257260645e-05  2.2499699687954567e-05  2.2474836621265479e-05  2.2452090799280829e-05  2.2431357375642804e-05  2.2412394073282274e-05  2.2394855390133904e-05  2.2378364517905991e-05  2.2362604661158214e-05  2.2347400356168483e-05  2.2332762607389170e-05  2.2318876978943619e-05  2.2306037110429678e-05  2.2294560965661388e-05  2.2284734505028284e-05  2.2276797317856705e-05  2.2270949879387300e-05  2.2267356704981289e-05  2.2266135202200005e-05  2.2097208043647429e-05  2.2098354834447724e-05  2.2101826780169075e-05  2.2107499725896518e-05  2.2115249432994141e-05  2.2125019490291050e-05  2.2136819804838045e-05  2.2150649820026933e-05  2.2166396340858273e-05  2.2183774768452347e-05  2.2202359967429950e-05  2.2221707336148827e-05  2.2241520202789999e-05  2.2261791185180728e-05  2.2282840307940731e-05  2.2305206834046805e-05  2.2329436945372946e-05  2.2355891360614251e-05  2.2384684259794087e-05  2.2415766808852886e-05  2.2449077964757363e-05  2.2484653308882812e