<?xml version="1.0"?>
<VTKFile type="UnstructuredGrid"  version="0.1"  >
<UnstructuredGrid>
<Piece  NumberOfPoints="10201" NumberOfCells="20000">
<Points>
<DataArray  type="Float64"  NumberOfComponents="3"  format="ascii">0 0 0  0.25 0 0  0.5 0 0  0.75 0 0  1 0 0  1.25 0 0  1.5 0 0  1.75 0 0  2 0 0  2.25 0 0  2.5 0 0  2.75 0 0  3 0 0  3.25 0 0  3.5 0 0  3.75 0 0  4 0 0  4.25 0 0  4.5 0 0  4.75 0 0  5 0 0  5.25 0 0  5.5 0 0  5.75 0 0  6 0 0  6.25 0 0  6.5 0 0  6.75 0 0  7 0 0  7.25 0 0  7.5 0 0  7.75 0 0  8 0 0  8.25 0 0  8.5 0 0  8.75 0 0  9 0 0  9.25 0 0  9.5 0 0  9.75 0 0  10 0 0  10.25 0 0  10.5 0 0  10.75 0 0  11 0 0  11.25 0 0  11.5 0 0  11.75 0 0  12 0 0  12.25 0 0  12.5 0 0  12.75 0 0  13 0 0  13.25 0 0  13.5 0 0  13.75 0 0  14 0 0  14.25 0 0  14.5 0 0  14.75 0 0  15 0 0  15.25 0 0  15.5 0 0  15.75 0 0  16 0 0  16.25 0 0  16.5 0 0  16.75 0 0  17 0 0  17.25 0 0  17.5 0 0  17.75 0 0  18 0 0  18.25 0 0  18.5 0 0  18.75 0 0  19 0 0  19.25 0 0  19.5 0 0  19.75 0 0  20 0 0  20.25 0 0  20.5 0 0  20.75 0 0  21 0 0  21.25 0 0  21.5 0 0  21.75 0 0  22 0 0  22.25 0 0  22.5 0 0  22.75 0 0  23 0 0  23.25 0 0  23.5 0 0  23.75 0 0  24 0 0  24.25 0 0  24.5 0 0  24.75 0 0  25 0 0  0 0.25 0  0.25 0.25 0  0.5 0.25 0  0.75 0.25 0  1 0.25 0  1.25 0.25 0  1.5 0.25 0  1.75 0.25 0  2 0.25 0  2.25 0.25 0  2.5 0.25 0  2.75 0.25 0  3 0.25 0  3.25 0.25 0  3.5 0.25 0  3.75 0.25 0  4 0.25 0  4.25 0.25 0  4.5 0.25 0  4.75 0.25 0  5 0.25 0  5.25 0.25 0  5.5 0.25 0  5.75 0.25 0  6 0.25 0  6.25 0.25 0  6.5 0.25 0  6.75 0.25 0  7 0.25 0  7.25 0.25 0  7.5 0.25 0  7.75 0.25 0  8 0.25 0  8.25 0.25 0  8.5 0.25 0  8.75 0.25 0  9 0.25 0  9.25 0.25 0  9.5 0.25 0  9.75 0.25 0  10 0.25 0  10.25 0.25 0  10.5 0.25 0  10.75 0.25 0  11 0.25 0  11.25 0.25 0  11.5 0.25 0  11.75 0.25 0  12 0.25 0  12.25 0.25 0  12.5 0.25 0  12.75 0.25 0  13 0.25 0  13.25 0.25 0  13.5 0.25 0  13.75 0.25 0  14 0.25 0  14.25 0.25 0  14.5 0.25 0  14.75 0.25 0  15 0.25 0  15.25 0.25 0  15.5 0.25 0  15.75 0.25 0  16 0.25 0  16.25 0.25 0  16.5 0.25 0  16.75 0.25 0  17 0.25 0  17.25 0.25 0  17.5 0.25 0  17.75 0.25 0  18 0.25 0  18.25 0.25 0  18.5 0.25 0  18.75 0.25 0  19 0.25 0  19.25 0.25 0  19.5 0.25 0  19.75 0.25 0  20 0.25 0  20.25 0.25 0  20.5 0.25 0  20.75 0.25 0  21 0.25 0  21.25 0.25 0  21.5 0.25 0  21.75 0.25 0  22 0.25 0  22.25 0.25 0  22.5 0.25 0  22.75 0.25 0  23 0.25 0  23.25 0.25 0  23.5 0.25 0  23.75 0.25 0  24 0.25 0  24.25 0.25 0  24.5 0.25 0  24.75 0.25 0  25 0.25 0  0 0.5 0  0.25 0.5 0  0.5 0.5 0  0.75 0.5 0  1 0.5 0  1.25 0.5 0  1.5 0.5 0  1.75 0.5 0  2 0.5 0  2.25 0.5 0  2.5 0.5 0  2.75 0.5 0  3 0.5 0  3.25 0.5 0  3.5 0.5 0  3.75 0.5 0  4 0.5 0  4.25 0.5 0  4.5 0.5 0  4.75 0.5 0  5 0.5 0  5.25 0.5 0  5.5 0.5 0  5.75 0.5 0  6 0.5 0  6.25 0.5 0  6.5 0.5 0  6.75 0.5 0  7 0.5 0  7.25 0.5 0  7.5 0.5 0  7.75 0.5 0  8 0.5 0  8.25 0.5 0  8.5 0.5 0  8.75 0.5 0  9 0.5 0  9.25 0.5 0  9.5 0.5 0  9.75 0.5 0  10 0.5 0  10.25 0.5 0  10.5 0.5 0  10.75 0.5 0  11 0.5 0  11.25 0.5 0  11.5 0.5 0  11.75 0.5 0  12 0.5 0  12.25 0.5 0  12.5 0.5 0  12.75 0.5 0  13 0.5 0  13.25 0.5 0  13.5 0.5 0  13.75 0.5 0  14 0.5 0  14.25 0.5 0  14.5 0.5 0  14.75 0.5 0  15 0.5 0  15.25 0.5 0  15.5 0.5 0  15.75 0.5 0  16 0.5 0  16.25 0.5 0  16.5 0.5 0  16.75 0.5 0  17 0.5 0  17.25 0.5 0  17.5 0.5 0  17.75 0.5 0  18 0.5 0  18.25 0.5 0  18.5 0.5 0  18.75 0.5 0  19 0.5 0  19.25 0.5 0  19.5 0.5 0  19.75 0.5 0  20 0.5 0  20.25 0.5 0  20.5 0.5 0  20.75 0.5 0  21 0.5 0  21.25 0.5 0  21.5 0.5 0  21.75 0.5 0  22 0.5 0  22.25 0.5 0  22.5 0.5 0  22.75 0.5 0  23 0.5 0  23.25 0.5 0  23.5 0.5 0  23.75 0.5 0  24 0.5 0  24.25 0.5 0  24.5 0.5 0  24.75 0.5 0  25 0.5 0  0 0.75 0  0.25 0.75 0  0.5 0.75 0  0.75 0.75 0  1 0.75 0  1.25 0.75 0  1.5 0.75 0  1.75 0.75 0  2 0.75 0  2.25 0.75 0  2.5 0.75 0  2.75 0.75 0  3 0.75 0  3.25 0.75 0  3.5 0.75 0  3.75 0.75 0  4 0.75 0  4.25 0.75 0  4.5 0.75 0  4.75 0.75 0  5 0.75 0  5.25 0.75 0  5.5 0.75 0  5.75 0.75 0  6 0.75 0  6.25 0.75 0  6.5 0.75 0  6.75 0.75 0  7 0.75 0  7.25 0.75 0  7.5 0.75 0  7.75 0.75 0  8 0.75 0  8.25 0.75 0  8.5 0.75 0  8.75 0.75 0  9 0.75 0  9.25 0.75 0  9.5 0.75 0  9.75 0.75 0  10 0.75 0  10.25 0.75 0  10.5 0.75 0  10.75 0.75 0  11 0.75 0  11.25 0.75 0  11.5 0.75 0  11.75 0.75 0  12 0.75 0  12.25 0.75 0  12.5 0.75 0  12.75 0.75 0  13 0.75 0  13.25 0.75 0  13.5 0.75 0  13.75 0.75 0  14 0.75 0  14.25 0.75 0  14.5 0.75 0  14.75 0.75 0  15 0.75 0  15.25 0.75 0  15.5 0.75 0  15.75 0.75 0  16 0.75 0  16.25 0.75 0  16.5 0.75 0  16.75 0.75 0  17 0.75 0  17.25 0.75 0  17.5 0.75 0  17.75 0.75 0  18 0.75 0  18.25 0.75 0  18.5 0.75 0  18.75 0.75 0  19 0.75 0  19.25 0.75 0  19.5 0.75 0  19.75 0.75 0  20 0.75 0  20.25 0.75 0  20.5 0.75 0  20.75 0.75 0  21 0.75 0  21.25 0.75 0  21.5 0.75 0  21.75 0.75 0  22 0.75 0  22.25 0.75 0  22.5 0.75 0  22.75 0.75 0  23 0.75 0  23.25 0.75 0  23.5 0.75 0  23.75 0.75 0  24 0.75 0  24.25 0.75 0  24.5 0.75 0  24.75 0.75 0  25 0.75 0  0 1 0  0.25 1 0  0.5 1 0  0.75 1 0  1 1 0  1.25 1 0  1.5 1 0  1.75 1 0  2 1 0  2.25 1 0  2.5 1 0  2.75 1 0  3 1 0  3.25 1 0  3.5 1 0  3.75 1 0  4 1 0  4.25 1 0  4.5 1 0  4.75 1 0  5 1 0  5.25 1 0  5.5 1 0  5.75 1 0  6 1 0  6.25 1 0  6.5 1 0  6.75 1 0  7 1 0  7.25 1 0  7.5 1 0  7.75 1 0  8 1 0  8.25 1 0  8.5 1 0  8.75 1 0  9 1 0  9.25 1 0  9.5 1 0  9.75 1 0  10 1 0  10.25 1 0  10.5 1 0  10.75 1 0  11 1 0  11.25 1 0  11.5 1 0  11.75 1 0  12 1 0  12.25 1 0  12.5 1 0  12.75 1 0  13 1 0  13.25 1 0  13.5 1 0  13.75 1 0  14 1 0  14.25 1 0  14.5 1 0  14.75 1 0  15 1 0  15.25 1 0  15.5 1 0  15.75 1 0  16 1 0  16.25 1 0  16.5 1 0  16.75 1 0  17 1 0  17.25 1 0  17.5 1 0  17.75 1 0  18 1 0  18.25 1 0  18.5 1 0  18.75 1 0  19 1 0  19.25 1 0  19.5 1 0  19.75 1 0  20 1 0  20.25 1 0  20.5 1 0  20.75 1 0  21 1 0  21.25 1 0  21.5 1 0  21.75 1 0  22 1 0  22.25 1 0  22.5 1 0  22.75 1 0  23 1 0  23.25 1 0  23.5 1 0  23.75 1 0  24 1 0  24.25 1 0  24.5 1 0  24.75 1 0  25 1 0  0 1.25 0  0.25 1.25 0  0.5 1.25 0  0.75 1.25 0  1 1.25 0  1.25 1.25 0  1.5 1.25 0  1.75 1.25 0  2 1.25 0  2.25 1.25 0  2.5 1.25 0  2.75 1.25 0  3 1.25 0  3.25 1.25 0  3.5 1.25 0  3.75 1.25 0  4 1.25 0  4.25 1.25 0  4.5 1.25 0  4.75 1.25 0  5 1.25 0  5.25 1.25 0  5.5 1.25 0  5.75 1.25 0  6 1.25 0  6.25 1.25 0  6.5 1.25 0  6.75 1.25 0  7 1.25 0  7.25 1.25 0  7.5 1.25 0  7.75 1.25 0  8 1.25 0  8.25 1.25 0  8.5 1.25 0  8.75 1.25 0  9 1.25 0  9.25 1.25 0  9.5 1.25 0  9.75 1.25 0  10 1.25 0  10.25 1.25 0  10.5 1.25 0  10.75 1.25 0  11 1.25 0  11.25 1.25 0  11.5 1.25 0  11.75 1.25 0  12 1.25 0  12.25 1.25 0  12.5 1.25 0  12.75 1.25 0  13 1.25 0  13.25 1.25 0  13.5 1.25 0  13.75 1.25 0  14 1.25 0  14.25 1.25 0  14.5 1.25 0  14.75 1.25 0  15 1.25 0  15.25 1.25 0  15.5 1.25 0  15.75 1.25 0  16 1.25 0  16.25 1.25 0  16.5 1.25 0  16.75 1.25 0  17 1.25 0  17.25 1.25 0  17.5 1.25 0  17.75 1.25 0  18 1.25 0  18.25 1.25 0  18.5 1.25 0  18.75 1.25 0  19 1.25 0  19.25 1.25 0  19.5 1.25 0  19.75 1.25 0  20 1.25 0  20.25 1.25 0  20.5 1.25 0  20.75 1.25 0  21 1.25 0  21.25 1.25 0  21.5 1.25 0  21.75 1.25 0  22 1.25 0  22.25 1.25 0  22.5 1.25 0  22.75 1.25 0  23 1.25 0  23.25 1.25 0  23.5 1.25 0  23.75 1.25 0  24 1.25 0  24.25 1.25 0  24.5 1.25 0  24.75 1.25 0  25 1.25 0  0 1.5 0  0.25 1.5 0  0.5 1.5 0  0.75 1.5 0  1 1.5 0  1.25 1.5 0  1.5 1.5 0  1.75 1.5 0  2 1.5 0  2.25 1.5 0  2.5 1.5 0  2.75 1.5 0  3 1.5 0  3.25 1.5 0  3.5 1.5 0  3.75 1.5 0  4 1.5 0  4.25 1.5 0  4.5 1.5 0  4.75 1.5 0  5 1.5 0  5.25 1.5 0  5.5 1.5 0  5.75 1.5 0  6 1.5 0  6.25 1.5 0  6.5 1.5 0  6.75 1.5 0  7 1.5 0  7.25 1.5 0  7.5 1.5 0  7.75 1.5 0  8 1.5 0  8.25 1.5 0  8.5 1.5 0  8.75 1.5 0  9 1.5 0  9.25 1.5 0  9.5 1.5 0  9.75 1.5 0  10 1.5 0  10.25 1.5 0  10.5 1.5 0  10.75 1.5 0  11 1.5 0  11.25 1.5 0  11.5 1.5 0  11.75 1.5 0  12 1.5 0  12.25 1.5 0  12.5 1.5 0  12.75 1.5 0  13 1.5 0  13.25 1.5 0  13.5 1.5 0  13.75 1.5 0  14 1.5 0  14.25 1.5 0  14.5 1.5 0  14.75 1.5 0  15 1.5 0  15.25 1.5 0  15.5 1.5 0  15.75 1.5 0  16 1.5 0  16.25 1.5 0  16.5 1.5 0  16.75 1.5 0  17 1.5 0  17.25 1.5 0  17.5 1.5 0  17.75 1.5 0  18 1.5 0  18.25 1.5 0  18.5 1.5 0  18.75 1.5 0  19 1.5 0  19.25 1.5 0  19.5 1.5 0  19.75 1.5 0  20 1.5 0  20.25 1.5 0  20.5 1.5 0  20.75 1.5 0  21 1.5 0  21.25 1.5 0  21.5 1.5 0  21.75 1.5 0  22 1.5 0  22.25 1.5 0  22.5 1.5 0  22.75 1.5 0  23 1.5 0  23.25 1.5 0  23.5 1.5 0  23.75 1.5 0  24 1.5 0  24.25 1.5 0  24.5 1.5 0  24.75 1.5 0  25 1.5 0  0 1.75 0  0.25 1.75 0  0.5 1.75 0  0.75 1.75 0  1 1.75 0  1.25 1.75 0  1.5 1.75 0  1.75 1.75 0  2 1.75 0  2.25 1.75 0  2.5 1.75 0  2.75 1.75 0  3 1.75 0  3.25 1.75 0  3.5 1.75 0  3.75 1.75 0  4 1.75 0  4.25 1.75 0  4.5 1.75 0  4.75 1.75 0  5 1.75 0  5.25 1.75 0  5.5 1.75 0  5.75 1.75 0  6 1.75 0  6.25 1.75 0  6.5 1.75 0  6.75 1.75 0  7 1.75 0  7.25 1.75 0  7.5 1.75 0  7.75 1.75 0  8 1.75 0  8.25 1.75 0  8.5 1.75 0  8.75 1.75 0  9 1.75 0  9.25 1.75 0  9.5 1.75 0  9.75 1.75 0  10 1.75 0  10.25 1.75 0  10.5 1.75 0  10.75 1.75 0  11 1.75 0  11.25 1.75 0  11.5 1.75 0  11.75 1.75 0  12 1.75 0  12.25 1.75 0  12.5 1.75 0  12.75 1.75 0  13 1.75 0  13.25 1.75 0  13.5 1.75 0  13.75 1.75 0  14 1.75 0  14.25 1.75 0  14.5 1.75 0  14.75 1.75 0  15 1.75 0  15.25 1.75 0  15.5 1.75 0  15.75 1.75 0  16 1.75 0  16.25 1.75 0  16.5 1.75 0  16.75 1.75 0  17 1.75 0  17.25 1.75 0  17.5 1.75 0  17.75 1.75 0  18 1.75 0  18.25 1.75 0  18.5 1.75 0  18.75 1.75 0  19 1.75 0  19.25 1.75 0  19.5 1.75 0  19.75 1.75 0  20 1.75 0  20.25 1.75 0  20.5 1.75 0  20.75 1.75 0  21 1.75 0  21.25 1.75 0  21.5 1.75 0  21.75 1.75 0  22 1.75 0  22.25 1.75 0  22.5 1.75 0  22.75 1.75 0  23 1.75 0  23.25 1.75 0  23.5 1.75 0  23.75 1.75 0  24 1.75 0  24.25 1.75 0  24.5 1.75 0  24.75 1.75 0  25 1.75 0  0 2 0  0.25 2 0  0.5 2 0  0.75 2 0  1 2 0  1.25 2 0  1.5 2 0  1.75 2 0  2 2 0  2.25 2 0  2.5 2 0  2.75 2 0  3 2 0  3.25 2 0  3.5 2 0  3.75 2 0  4 2 0  4.25 2 0  4.5 2 0  4.75 2 0  5 2 0  5.25 2 0  5.5 2 0  5.75 2 0  6 2 0  6.25 2 0  6.5 2 0  6.75 2 0  7 2 0  7.25 2 0  7.5 2 0  7.75 2 0  8 2 0  8.25 2 0  8.5 2 0  8.75 2 0  9 2 0  9.25 2 0  9.5 2 0  9.75 2 0  10 2 0  10.25 2 0  10.5 2 0  10.75 2 0  11 2 0  11.25 2 0 
[...]
<PointData  Scalars="f_26"> 
<DataArray  type="Float64"  Name="f_26"  format="ascii">2.4665527396487913e-05  2.4659498699214457e-05  2.4645985926172665e-05  2.4624353334572050e-05  2.4594446130180953e-05  2.4556272460916245e-05  2.4509944616497255e-05  2.4455684247299593e-05  2.4393845249105007e-05  2.4324940163038570e-05  2.4249663167538429e-05  2.4168904557668504e-05  2.4083752603296422e-05  2.3995480093337938e-05  2.3905515020761541e-05  2.3815397597405013e-05  2.3726728533689521e-05  2.3641115180153158e-05  2.3560121159740398e-05  2.3485220305725072e-05  2.3417747947239140e-05  2.3358837070615421e-05  2.3309332815540514e-05  2.3269700888152970e-05  2.3239971701615454e-05  2.3219765182571191e-05  2.3208405294220069e-05  2.3205079650144752e-05  2.3208972180906550e-05  2.3219317742798495e-05  2.3235376517435198e-05  2.3256365361027632e-05  2.3281392201498915e-05  2.3309423450618686e-05  2.3339291072370272e-05  2.3369729760279162e-05  2.3399429686325004e-05  2.3427092912046581e-05  2.3451486464288044e-05  2.3471488982779231e-05  2.3486129965778572e-05  2.3494621496943382e-05  2.3496382623789952e-05  2.3491056681407556e-05  2.3478521954965805e-05  2.3458896182416659e-05  2.3432535540170758e-05  2.3400028951949887e-05  2.3362188745880454e-05  2.3320038538410588e-05  2.3274798001112230e-05  2.3227860709101132e-05  2.3180754717947495e-05  2.3135067391831015e-05  2.3092313248946742e-05  2.3053738595054205e-05  2.3020097102282967e-05  2.2991479162786130e-05  2.2967288476694771e-05  2.2946398403194502e-05  2.2927424466121285e-05  2.2909004434449146e-05  2.2890023390292266e-05  2.2869812151362767e-05  2.2848413742611873e-05  2.2826999779725006e-05  2.2808354203965328e-05  2.2797010276741791e-05  2.2798456134963694e-05  2.2817381637753184e-05  2.2855980677785628e-05  2.2913519656824654e-05  2.2987277738120238e-05  2.3073908130312124e-05  2.3170338702495077e-05  2.3274028395120393e-05  2.3382852894616315e-05  2.3494919361038222e-05  2.3608453373983157e-05  2.3721770645567084e-05  2.3833299567290564e-05  2.3941623874988881e-05  2.4045525525220238e-05  2.4144015824292256e-05  2.4236349282197593e-05  2.4322019674897574e-05  2.4400741086631159e-05  2.4472418354590417e-05  2.4537111683174403e-05  2.4594999657642887e-05  2.4646343883929319e-05  2.4691457352604290e-05  2.4730677598578195e-05  2.4764344919946990e-05  2.4792785354828532e-05  2.4816297753821041e-05  2.4835144023287554e-05  2.4849541190943407e-05  2.4859652465757560e-05  2.4865568118387271e-05  2.4867237908875771e-05  2.4657201672483110e-05  2.4652475313871142e-05  2.4639286665434733e-05  2.4617752516857491e-05  2.4587889326053941e-05  2.4549750821315783e-05  2.4503465706494824e-05  2.4449264565786284e-05  2.4387507881177718e-05  2.4318713574912429e-05  2.4243580079554589e-05  2.4163000610175429e-05  2.4078064795314194e-05  2.3990045097576585e-05  2.3900367544785905e-05  2.3810568983496743e-05  2.3722245767091080e-05  2.3637000405054253e-05  2.3556391690830072e-05  2.3481888968116426e-05  2.3414823366443734e-05  2.3356323412095225e-05  2.3307228702511823e-05  2.3267997786421695e-05  2.3238652662269336e-05  2.3218805084908787e-05  2.3207773260878942e-05  2.3204743175935674e-05  2.3208901468885540e-05  2.3219488621753724e-05  2.3235771183037202e-05  2.3256971288961192e-05  2.3282200190340303e-05  2.3310425713004113e-05  2.3340479894421466e-05  2.3371096831640156e-05  2.3400965947432307e-05  2.3428788689100960e-05  2.3453331699053946e-05  2.3473473437622426e-05  2.3488243347008623e-05  2.3496853476703434e-05  2.3498722756879290e-05  2.3493494218353826e-05  2.3481045553051648e-05  2.3461493513009861e-05  2.3435192780229793e-05  2.3402730127107256e-05  2.3364914867266405e-05  2.3322766470320723e-05  2.3277499070738323e-05  2.3230499317659413e-05  2.3183287708506289e-05  2.3137445545725177e-05  2.3094486433889668e-05  2.3055664803664452e-05  2.3021752612273360e-05  2.2992864338124043e-05  2.2968424978255468e-05  2.2947319463848678e-05  2.2928165262555927e-05  2.2909599214109416e-05  2.2890511403656841e-05  2.2870250178119211e-05  2.2848888878793228e-05  2.2827629156158161e-05  2.2809255150329340e-05  2.2798244427966624e-05  2.2799989237862374e-05  2.2819101711440366e-05  2.2857759195373355e-05  2.2915260533839152e-05  2.2988927324808177e-05  2.3075441630476077e-05  2.3171745307861162e-05  2.3275303533287633e-05  2.3383995960438138e-05  2.3495933139616149e-05  2.3609343193516002e-05  2.3722543577407510e-05  2.3833963986468578e-05  2.3942189065678100e-05  2.4046001209621653e-05  2.4144411709869669e-05  2.4236674712257290e-05  2.4322283404546872e-05  2.4400951166339742e-05  2.4472582089683897e-05  2.4537235639125544e-05  2.4595089689286984e-05  2.4646405176212840e-05  2.4691494468524382e-05  2.4730694536313300e-05  2.4764345187849498e-05  2.4792772086151376e-05  2.4816273922650924e-05  2.4835112964371830e-05  2.4849508188019253e-05  2.4859630614337056e-05  2.4865603018574947e-05  2.4867521186350599e-05  2.4636767920966869e-05  2.4632364383273115e-05  2.4619397424186208e-05  2.4597987940990065e-05  2.4568209100005403e-05  2.4530153480509390e-05  2.4483976179922492e-05  2.4429928675763009e-05  2.4368389839962613e-05  2.4299894124307223e-05  2.4225154169202038e-05  2.4145074173598372e-05  2.4060750576864347e-05  2.3973457774057961e-05  2.3884618619931584e-05  2.3795762098354392e-05  2.3708473110537967e-05  2.3624340729383032e-05  2.3544909935659218e-05  2.3471636680294636e-05  2.3405838245073909e-05  2.3348626149137643e-05  2.3300816731767263e-05  2.3262838423186382e-05  2.3234680423651157e-05  2.3215927187978989e-05  2.3205883082356476e-05  2.3203736784675396e-05  2.3208690800209911e-05  2.3220007229706039e-05  2.3236972529446883e-05  2.3258822468999472e-05  2.3284674688336649e-05  2.3313497735539554e-05  2.3344121221958915e-05  2.3375275900756477e-05  2.3405648346485139e-05  2.3433938265324655e-05  2.3458911725266567e-05  2.3479447543432374e-05  2.3494576093108492e-05  2.3503510543105712e-05  2.3505670757596428e-05  2.3500700171428911e-05  2.3488476036936828e-05  2.3469113527727680e-05  2.3442964299662822e-05  2.3410610276341389e-05  2.3372853602366877e-05  2.3330703631035038e-05  2.3285360835610328e-05  2.3238194595157062e-05  2.3190705989187094e-05  2.3144459023777255e-05  2.3100959811626962e-05  2.3061474387032686e-05  2.3026811078276400e-05  2.2997141333828704e-05  2.2971952617346985e-05  2.2950179660324567e-05  2.2930467496347646e-05  2.2911462651764455e-05  2.2892061062538049e-05  2.2871628545676348e-05  2.2850276307361180e-05  2.2829256409712671e-05  2.2811381559700294e-05  2.2801084781298255e-05  2.2803619021330107e-05  2.2823413636840218e-05  2.2862512942456345e-05  2.2920184471521965e-05  2.2993798222315138e-05  2.3080110260146177e-05  2.3176124306137591e-05  2.3279345274904508e-05  2.3387675729062143e-05  2.3499240077679782e-05  2.3612276287542222e-05  2.3725109881786423e-05  2.3836177538186423e-05  2.3944069815441161e-05  2.4047573761537859e-05  2.4145703906089788e-05  2.4237716192785418e-05  2.4323104274770805e-05  2.4401580867659869e-05  2.4473048522767721e-05  2.4537564549502387e-05  2.4595304296893196e-05  2.4646526014884296e-05  2.4691539396784560e-05  2.4730678885266053e-05  2.4764282025272299e-05  2.4792672602057796e-05  2.4816147994772315e-05  2.4834970077879336e-05  2.4849359127070393e-05  2.4859490675670465e-05  2.4865496483714506e-05  2.4867472465004732e-05  2.4603525012131380e-05  2.4599219684152772e-05  2.4586377982504266e-05  2.4565078681777534e-05  2.4535407397284088e-05  2.4497482798135959e-05  2.4451488387467621e-05  2.4397704097818363e-05  2.4336536565427339e-05  2.4268546273567931e-05  2.4194468641014964e-05  2.4115225627473700e-05  2.4031924747731445e-05  2.3945843588489772e-05  2.3858399938924817e-05  2.3771110178050805e-05  2.3685540923949680e-05  2.3603259936055537e-05  2.3525790349722950e-05  2.3454566619924228e-05  2.3390882719329067e-05  2.3335819901912733e-05  2.3290152187030612e-05  2.3254253809796779e-05  2.3228056860389012e-05  2.3211100961165350e-05  2.3202671141647719e-05  2.3201965679358821e-05  2.3208217872038673e-05  2.3220728082840370e-05  2.3238815942475193e-05  2.3261738443834905e-05  2.3288621849907299e-05  2.3318434091885599e-05  2.3349999466534355e-05  2.3382042464423583e-05  2.3413244680041810e-05  2.3442302986801149e-05  2.3467982746117822e-05  2.3489163726955233e-05  2.3504878276642732e-05  2.3514341896091593e-05  2.3516976509353298e-05  2.3512426767598441e-05  2.3500569787833234e-05  2.3481518793662924e-05  2.3455621209769560e-05  2.3423451896564625e-05  2.3385802376449429e-05  2.3343666888155806e-05  2.3298225350059654e-05  2.3250820853903573e-05  2.3202924208057486e-05  2.3156070877463315e-05  2.3111751091772195e-05  2.3071241939816447e-05  2.3035400443093577e-05  2.3004481864381294e-05  2.2978072817989126e-05  2.2955194411949002e-05  2.2934546324350231e-05  2.2914799555284426e-05  2.2894863251873923e-05  2.2874129236432707e-05  2.2852763011092497e-05  2.2832090292061043e-05  2.2814968299849731e-05  2.2805769401795519e-05  2.2809542182280363e-05  2.2830434522617415e-05  2.2870270666986694e-05  2.2928249886870708e-05  2.3001805156048589e-05  2.3087806342862416e-05  2.3183358090611388e-05  2.3286032227859094e-05  2.3393770220642990e-05  2.3504719830858369e-05  2.3617135676534180e-05  2.3729357211001598e-05  2.3839833412585895e-05  2.3947165460858298e-05  2.4050148977207613e-05  2.4147804692948191e-05  2.4239392260994329e-05  2.4324406665562725e-05  2.4402559880708914e-05  2.4473752065823738e-05  2.4538036952110460e-05  2.4595585570879977e-05  2.4646651506767071e-05  2.4691539760622135e-05  2.4730580304886133e-05  2.4764106628041959e-05  2.4792439029360656e-05  2.4815872124522562e-05  2.4834665920988772e-05  2.4849039885449587e-05  2.4859169612294354e-05  2.4865185822222352e-05  2.4867174550325875e-05  2.4557231186875754e-05  2.4552971915856086e-05  2.4540217052077103e-05  2.4519027139145142e-05  2.4489496058552293e-05  2.4451765887334469e-05  2.4406051039840722e-05  2.4352665834290596e-05  2.4292052124591902e-05  2.4224804005056353e-05  2.4151686328282797e-05  2.4073643718096742e-05  2.3991797305037911e-05  2.3907427719813408e-05  2.3821944903038430e-05  2.3736847696424511e-05  2.3653678205736642e-05  2.3573976285691161e-05  2.3499236758581544e-05  2.3430865598413884e-05  2.3370123834446913e-05  2.3318047344723536e-05  2.3275345913567707e-05  2.3242313371880757e-05  2.3218800738354363e-05  2.3204288588189665e-05  2.3198042194764156e-05  2.3199281163050679e-05  2.3207287544683962e-05  2.3221417463400403e-05  2.3241036199088388e-05  2.3265428008289972e-05  2.3293728460947788e-05  2.3324902393303408e-05  2.3357765256351648e-05  2.3391032107739322e-05  2.3423377411265335e-05  2.3453494199698760e-05  2.3480147103947989e-05  2.3502217539258769e-05  2.3518740955859871e-05  2.3528936482348502e-05  2.3532229325494589e-05  2.3528266297095149e-05  2.3516924875696289e-05  2.3498316251239268e-05  2.3472782846422420e-05  2.3440890899316412e-05  2.3403418833151351e-05  2.3361342179269069e-05  2.3315815300612199e-05  2.3268148249242660e-05  2.3219772862123850e-05  2.3172185829392836e-05  2.3126851466395141e-05  2.3085051715011085e-05  2.3047694954264875e-05  2.3015135853672146e-05  2.2987088296899721e-05  2.2962694116190565e-05  2.2940739347961401e-05  2.2919943180362593e-05  2.2899245058919075e-05  2.2878078918043108e-05  2.2856683277228081e-05  2.2836473779776451e-05  2.2820350441525992e-05  2.2812588512172545e-05  2.2817960950998376e-05  2.2840253001660632e-05  2.2881011988057526e-05  2.2939354106403076e-05  2.3012794597047559e-05  2.3098349788329772e-05  2.3193254722051899e-05  2.3295168435874365e-05  2.3402083728890544e-05  2.3512179702706310e-05  2.3623733748472948e-05  2.3735104651754912e-05  2.3844758612782842e-05  2.3951311763408026e-05  2.4053571850439063e-05  2.4150568422776754e-05  2.4241566449822131e-05  2.4326062870768721e-05  2.4403768668254417e-05  2.4474580651931955e-05  2.4538547499567229e-05  2.4595834120216746e-05  2.4646687465957205e-05  2.4691405849529386e-05  2.4730312846683193e-05  2.4763736091287743e-05  2.4791990743008348e-05  2.4815367103482462e-05  2.4834121732986921e-05  2.4848471417967600e-05  2.4858589378538332e-05  2.4864603027031051e-05  2.4866592107532305e-05  2.4497812634203933e-05  2.4493593631256935e-05  2.4480926959946863e-05  2.4459872756361925e-05  2.4430539051495171e-05  2.4393094407256906e-05  2.4347788086053175e-05  2.4294973982333819e-05  2.4235134929097766e-05  2.4168904086830441e-05  2.4097080087444190e-05  2.4020632819660220e-05  2.3940697493226981e-05  2.3858556041086124e-05  2.3775606933741531e-05  2.3693326685317193e-05  2.3613227839106494e-05  2.3536817705212006e-05  2.3465558339803997e-05  2.3400821181228190e-05  2.3343823400062048e-05  2.3295536726939690e-05  2.3256580267483967e-05  2.3227138614288514e-05  2.3206959320790430e-05  2.3195455504641473e-05  2.3191880005295426e-05  2.3195492166582819e-05  2.3205644491724480e-05  2.3221766977035559e-05  2.3243281519267531e-05  2.3269503355755914e-05  2.3299575902687872e-05  2.3332456932553060e-05  2.3366948725259709e-05  2.3401753453927018e-05  2.3435536305419747e-05  2.3466985580926088e-05  2.3494865289156078e-05  2.3518059295755908e-05  2.3535607367193060e-05  2.3546733628959981e-05  2.3550867877268742e-05  2.3547660147119274e-05  2.3536988956186433e-05  2.3518963657012308e-05  2.3493921332207656e-05  2.3462418704360202e-05  2.3425219635021111e-05  2.3383278861148172e-05  2.3337722312232105e-05  2.3289822975821822e-05  2.3240967981989924e-05  2.3192607219184877e-05  2.3146168778587225e-05  2.3102928504132674e-05  2.3063838672701612e-05  2.3029355278178451e-05  2.2999335169737011e-05  2.2973069410238355e-05  2.2949465025447555e-05  2.2927322401657599e-05  2.2905639054307297e-05  2.2883914134371407e-05  2.2862476935114353e-05  2.2842837907152109e-05  2.2827919448793150e-05  2.2821849121186152e-05  2.2829057728653165e-05  2.2852912114925473e-05  2.2894656578040111e-05  2.2953327677024798e-05  2.3026543155756140e-05  2.3111489348077728e-05  2.3205550873696176e-05  2.3306487117894137e-05  2.3412350867383638e-05  2.3521358865289617e-05  2.3631816618544970e-05  2.3742107146050212e-05  2.3850718349009298e-05  2.3956285206530297e-05  2.4057630712694772e-05  2.4153795446021314e-05  2.4244050945901947e-05  2.4327896444125826e-05  2.4405041470062967e-05  2.4475378384975010e-05  2.4538949258092708e-05  2.4595911038975214e-05  2.4646502079660044e-05  2.4691012027620769e-05  2.4729756160977847e-05  2.4763054485246342e-05  2.4791215390331513e-05  2.4814523359251221e-05  2.4833230080257893e-05  2.4847548283247276e-05  2.4857647632942638e-05  2.4863651993561095e-05  2.4865637303821197e-05  2.4425341200357394e-05  2.4421173491808656e-05  2.4408623265359784e-05  2.4387760121823627e-05  2.4358712603931165e-05  2.4321680250920063e-05  2.4276951278495682e-05  2.4224923271159972e-05  2.4166123884243256e-05  2.4101228390160213e-05  2.4031070929635884e-05  2.3956646711797743e-05  2.3879103320958386e-05  2.3799720797912931e-05  2.3719882114434501e-05  2.3641037515077263e-05  2.3564666943512770e-05  2.3492243135918393e-05  2.3425192953542555e-05  2.3364847052158482e-05  2.3312364271617681e-05  2.3268627127082762e-05  2.3234131476312623e-05  2.3208921780490925e-05  2.3192623952297925e-05  2.3184584492269794e-05  2.3184061595193047e-05  2.3190380679226399e-05  2.3202990049093475e-05  2.3221411507140771e-05  2.3245132105547217e-05  2.3273498734271061e-05  2.3305658621127893e-05  2.3340556829789424e-05  2.3376977310031447e-05  2.3413605637587042e-05  2.3449095607581560e-05  2.3482130027538178e-05  2.3511472517156488e-05  2.3536010282922032e-05  2.3554788670813303e-05  2.3567038204228311e-05  2.3572194612594503e-05  2.3569912283332310e-05  2.3560071572775811e-05  2.3542780400719991e-05  2.3518370510651024e-05  2.3487388754606046e-05  2.3450583811650476e-05  2.3408888829266678e-05  2.3363400336160455e-05  2.3315352870330022e-05  2.3266086358464044e-05  2.3216999040281542e-05  2.3169474141250043e-05  2.3124768482712772e-05  2.3083863317816445e-05  2.3047305134612342e-05  2.3015094938544198e-05  2.2986690972804862e-05  2.2961153509867127e-05  2.2937402587556137e-05  2.2914530107215805e-05  2.2892128873392959e-05  2.2870633737169069e-05  2.2851642551167857e-05  2.2838064411568897e-05  2.2833823254454001e-05  2.2842955537779570e-05  2.2868383428325062e-05  2.2911050104918347e-05  2.2969928907003285e-05  2.3042757619418841e-05  2.3126905819812443e-05  2.3219916701895154e-05  2.3319656343113785e-05  2.3424242609850251e-05  2.3531934562273241e-05  2.3641070376655715e-05  2.3750061674951006e-05  2.3857422055737136e-05  2.3961808757430665e-05  2.4062062666940736e-05  2.4157237159498348e-05  2.4246611209560050e-05  2.4329686364151994e-05  2.4406170002107480e-05  2.4475948778214436e-05  2.4539056504369675e-05  2.4595640291778867e-05  2.4645927921210043e-05  2.4690198419082938e-05  2.4728756901814978e-05  2.4761914020716402e-05  2.4789969829253441e-05  2.4813201587322706e-05  2.4831854870427322e-05  2.4846137313350935e-05  2.4856214338457482e-05  2.4862206263809384e-05  2.4864186266714327e-05  2.4340082846051627e-05  2.4335986230983117e-05  2.4323601405488270e-05  2.4303012912016451e-05  2.4274374498418030e-05  2.4237920391797141e-05  2.4193980766118296e-05  2.4142999254068366e-05  2.4085549841381207e-05  2.4022350264452057e-05  2.3954269131397416e-05  2.3882324509883174e-05  2.3807672770662552e-05  2.3731588023439508e-05  2.3655434239894222e-05  2.3580633419127734e-05  2.3508632865397179e-05  2.3440871655594426e-05  2.3378740041400449e-05  2.3323518727674913e-05  2.3276286343409564e-05  2.3237801543452276e-05  2.3208397500623277e-05  2.3187948140579280e-05  2.3175948372277036e-05  2.3171692477163704e-05  2.3174474596508430e-05  2.3183720681676986e-05  2.3199002781237137e-05  2.3219950923845315e-05  2.3246122392104319e-05  2.3276892771758009e-05  2.3311406273396396e-05  2.3348587914719069e-05  2.3387197377688688e-05  2.3425899715764304e-05  2.3463335264834028e-05  2.3498180688190783e-05  2.3529199533488142e-05  2.3555283269211141e-05  2.3575484070318474e-05  2.3589040222568807e-05  2.3595394697525481e-05  2.3594207353907656e-05  2.3585361221124689e-05  2.3568963292240647e-05  2.3545340168157415e-05  2.3515028809059394e-05  2.3478762636536402e-05  2.3437453290222204e-05  2.3392168308661627e-05  2.3344104468894197e-05  2.3294554880264547e-05  2.3244864780768909e-05  2.3196367148941555e-05  2.3150288152705046e-05  2.3107620135118831e-05  2.3068980501909835e-05  2.3034502192485486e-05  2.3003814837953387e-05  2.2976155400801658e-05  2.2950600403789527e-05  2.2926375364216842e-05  2.2903196841959854e-05  2.2881615633815034e-05  2.2863299597869460e-05  2.2851101014522009e-05  2.2848689367117117e-05  2.2859676269223197e-05  2.2886542059530021e-05  2.2929952576412400e-05  2.2988841109693689e-05  2.3061077439928383e-05  2.3144217368483152e-05  2.3235962616740883e-05  2.3334286517303407e-05  2.3437374108866064e-05  2.3543530041091050e-05  2.3651128977135806e-05  2.3758614971841932e-05  2.3864530809625377e-05  2.3967558889540556e-05  2.4066560136054794e-05  2.4160602024428033e-05  2.4248971427716244e-05  2.4331171907300550e-05  2.4406907753429536e-05  2.4476058493705509e-05  2.4538647938645308e-05  2.4594811440713547e-05  2.4644764236511070e-05  2.4688772801759067e-05  2.4727130272246490e-05  2.4760136279162322e-05  2.4788081049450568e-05  2.4811233317707745e-05  2.4829831447261039e-05  2.4844077118705025e-05  2.4854130973711009e-05  2.4860109674853664e-05  2.4862083958124050e-05  2.4242565573117591e-05  2.4238565453535948e-05  2.4226412041366702e-05  2.4206207819915724e-05  2.4178134440818193e-05  2.4142462773472114e-05  2.4099566004148082e-05  2.4049933836845230e-05  2.3994185423814992e-05  2.3933078511039083e-05  2.3867512500106251e-05  2.3798523790409685e-05  2.3727272906647562e-05  2.3655024386311201e-05  2.3583121726125068e-05  2.3512960080208054e-05  2.3445957841469392e-05  2.3383523546049886e-05  2.3327007372965545e-05  2.3277622806796306e-05  2.3236333474987474e-05  2.3203726998846270e