<?xml version="1.0"?>
<VTKFile type="UnstructuredGrid"  version="0.1"  >
<UnstructuredGrid>
<Piece  NumberOfPoints="10201" NumberOfCells="20000">
<Points>
<DataArray  type="Float64"  NumberOfComponents="3"  format="ascii">0 0 0  0.25 0 0  0.5 0 0  0.75 0 0  1 0 0  1.25 0 0  1.5 0 0  1.75 0 0  2 0 0  2.25 0 0  2.5 0 0  2.75 0 0  3 0 0  3.25 0 0  3.5 0 0  3.75 0 0  4 0 0  4.25 0 0  4.5 0 0  4.75 0 0  5 0 0  5.25 0 0  5.5 0 0  5.75 0 0  6 0 0  6.25 0 0  6.5 0 0  6.75 0 0  7 0 0  7.25 0 0  7.5 0 0  7.75 0 0  8 0 0  8.25 0 0  8.5 0 0  8.75 0 0  9 0 0  9.25 0 0  9.5 0 0  9.75 0 0  10 0 0  10.25 0 0  10.5 0 0  10.75 0 0  11 0 0  11.25 0 0  11.5 0 0  11.75 0 0  12 0 0  12.25 0 0  12.5 0 0  12.75 0 0  13 0 0  13.25 0 0  13.5 0 0  13.75 0 0  14 0 0  14.25 0 0  14.5 0 0  14.75 0 0  15 0 0  15.25 0 0  15.5 0 0  15.75 0 0  16 0 0  16.25 0 0  16.5 0 0  16.75 0 0  17 0 0  17.25 0 0  17.5 0 0  17.75 0 0  18 0 0  18.25 0 0  18.5 0 0  18.75 0 0  19 0 0  19.25 0 0  19.5 0 0  19.75 0 0  20 0 0  20.25 0 0  20.5 0 0  20.75 0 0  21 0 0  21.25 0 0  21.5 0 0  21.75 0 0  22 0 0  22.25 0 0  22.5 0 0  22.75 0 0  23 0 0  23.25 0 0  23.5 0 0  23.75 0 0  24 0 0  24.25 0 0  24.5 0 0  24.75 0 0  25 0 0  0 0.25 0  0.25 0.25 0  0.5 0.25 0  0.75 0.25 0  1 0.25 0  1.25 0.25 0  1.5 0.25 0  1.75 0.25 0  2 0.25 0  2.25 0.25 0  2.5 0.25 0  2.75 0.25 0  3 0.25 0  3.25 0.25 0  3.5 0.25 0  3.75 0.25 0  4 0.25 0  4.25 0.25 0  4.5 0.25 0  4.75 0.25 0  5 0.25 0  5.25 0.25 0  5.5 0.25 0  5.75 0.25 0  6 0.25 0  6.25 0.25 0  6.5 0.25 0  6.75 0.25 0  7 0.25 0  7.25 0.25 0  7.5 0.25 0  7.75 0.25 0  8 0.25 0  8.25 0.25 0  8.5 0.25 0  8.75 0.25 0  9 0.25 0  9.25 0.25 0  9.5 0.25 0  9.75 0.25 0  10 0.25 0  10.25 0.25 0  10.5 0.25 0  10.75 0.25 0  11 0.25 0  11.25 0.25 0  11.5 0.25 0  11.75 0.25 0  12 0.25 0  12.25 0.25 0  12.5 0.25 0  12.75 0.25 0  13 0.25 0  13.25 0.25 0  13.5 0.25 0  13.75 0.25 0  14 0.25 0  14.25 0.25 0  14.5 0.25 0  14.75 0.25 0  15 0.25 0  15.25 0.25 0  15.5 0.25 0  15.75 0.25 0  16 0.25 0  16.25 0.25 0  16.5 0.25 0  16.75 0.25 0  17 0.25 0  17.25 0.25 0  17.5 0.25 0  17.75 0.25 0  18 0.25 0  18.25 0.25 0  18.5 0.25 0  18.75 0.25 0  19 0.25 0  19.25 0.25 0  19.5 0.25 0  19.75 0.25 0  20 0.25 0  20.25 0.25 0  20.5 0.25 0  20.75 0.25 0  21 0.25 0  21.25 0.25 0  21.5 0.25 0  21.75 0.25 0  22 0.25 0  22.25 0.25 0  22.5 0.25 0  22.75 0.25 0  23 0.25 0  23.25 0.25 0  23.5 0.25 0  23.75 0.25 0  24 0.25 0  24.25 0.25 0  24.5 0.25 0  24.75 0.25 0  25 0.25 0  0 0.5 0  0.25 0.5 0  0.5 0.5 0  0.75 0.5 0  1 0.5 0  1.25 0.5 0  1.5 0.5 0  1.75 0.5 0  2 0.5 0  2.25 0.5 0  2.5 0.5 0  2.75 0.5 0  3 0.5 0  3.25 0.5 0  3.5 0.5 0  3.75 0.5 0  4 0.5 0  4.25 0.5 0  4.5 0.5 0  4.75 0.5 0  5 0.5 0  5.25 0.5 0  5.5 0.5 0  5.75 0.5 0  6 0.5 0  6.25 0.5 0  6.5 0.5 0  6.75 0.5 0  7 0.5 0  7.25 0.5 0  7.5 0.5 0  7.75 0.5 0  8 0.5 0  8.25 0.5 0  8.5 0.5 0  8.75 0.5 0  9 0.5 0  9.25 0.5 0  9.5 0.5 0  9.75 0.5 0  10 0.5 0  10.25 0.5 0  10.5 0.5 0  10.75 0.5 0  11 0.5 0  11.25 0.5 0  11.5 0.5 0  11.75 0.5 0  12 0.5 0  12.25 0.5 0  12.5 0.5 0  12.75 0.5 0  13 0.5 0  13.25 0.5 0  13.5 0.5 0  13.75 0.5 0  14 0.5 0  14.25 0.5 0  14.5 0.5 0  14.75 0.5 0  15 0.5 0  15.25 0.5 0  15.5 0.5 0  15.75 0.5 0  16 0.5 0  16.25 0.5 0  16.5 0.5 0  16.75 0.5 0  17 0.5 0  17.25 0.5 0  17.5 0.5 0  17.75 0.5 0  18 0.5 0  18.25 0.5 0  18.5 0.5 0  18.75 0.5 0  19 0.5 0  19.25 0.5 0  19.5 0.5 0  19.75 0.5 0  20 0.5 0  20.25 0.5 0  20.5 0.5 0  20.75 0.5 0  21 0.5 0  21.25 0.5 0  21.5 0.5 0  21.75 0.5 0  22 0.5 0  22.25 0.5 0  22.5 0.5 0  22.75 0.5 0  23 0.5 0  23.25 0.5 0  23.5 0.5 0  23.75 0.5 0  24 0.5 0  24.25 0.5 0  24.5 0.5 0  24.75 0.5 0  25 0.5 0  0 0.75 0  0.25 0.75 0  0.5 0.75 0  0.75 0.75 0  1 0.75 0  1.25 0.75 0  1.5 0.75 0  1.75 0.75 0  2 0.75 0  2.25 0.75 0  2.5 0.75 0  2.75 0.75 0  3 0.75 0  3.25 0.75 0  3.5 0.75 0  3.75 0.75 0  4 0.75 0  4.25 0.75 0  4.5 0.75 0  4.75 0.75 0  5 0.75 0  5.25 0.75 0  5.5 0.75 0  5.75 0.75 0  6 0.75 0  6.25 0.75 0  6.5 0.75 0  6.75 0.75 0  7 0.75 0  7.25 0.75 0  7.5 0.75 0  7.75 0.75 0  8 0.75 0  8.25 0.75 0  8.5 0.75 0  8.75 0.75 0  9 0.75 0  9.25 0.75 0  9.5 0.75 0  9.75 0.75 0  10 0.75 0  10.25 0.75 0  10.5 0.75 0  10.75 0.75 0  11 0.75 0  11.25 0.75 0  11.5 0.75 0  11.75 0.75 0  12 0.75 0  12.25 0.75 0  12.5 0.75 0  12.75 0.75 0  13 0.75 0  13.25 0.75 0  13.5 0.75 0  13.75 0.75 0  14 0.75 0  14.25 0.75 0  14.5 0.75 0  14.75 0.75 0  15 0.75 0  15.25 0.75 0  15.5 0.75 0  15.75 0.75 0  16 0.75 0  16.25 0.75 0  16.5 0.75 0  16.75 0.75 0  17 0.75 0  17.25 0.75 0  17.5 0.75 0  17.75 0.75 0  18 0.75 0  18.25 0.75 0  18.5 0.75 0  18.75 0.75 0  19 0.75 0  19.25 0.75 0  19.5 0.75 0  19.75 0.75 0  20 0.75 0  20.25 0.75 0  20.5 0.75 0  20.75 0.75 0  21 0.75 0  21.25 0.75 0  21.5 0.75 0  21.75 0.75 0  22 0.75 0  22.25 0.75 0  22.5 0.75 0  22.75 0.75 0  23 0.75 0  23.25 0.75 0  23.5 0.75 0  23.75 0.75 0  24 0.75 0  24.25 0.75 0  24.5 0.75 0  24.75 0.75 0  25 0.75 0  0 1 0  0.25 1 0  0.5 1 0  0.75 1 0  1 1 0  1.25 1 0  1.5 1 0  1.75 1 0  2 1 0  2.25 1 0  2.5 1 0  2.75 1 0  3 1 0  3.25 1 0  3.5 1 0  3.75 1 0  4 1 0  4.25 1 0  4.5 1 0  4.75 1 0  5 1 0  5.25 1 0  5.5 1 0  5.75 1 0  6 1 0  6.25 1 0  6.5 1 0  6.75 1 0  7 1 0  7.25 1 0  7.5 1 0  7.75 1 0  8 1 0  8.25 1 0  8.5 1 0  8.75 1 0  9 1 0  9.25 1 0  9.5 1 0  9.75 1 0  10 1 0  10.25 1 0  10.5 1 0  10.75 1 0  11 1 0  11.25 1 0  11.5 1 0  11.75 1 0  12 1 0  12.25 1 0  12.5 1 0  12.75 1 0  13 1 0  13.25 1 0  13.5 1 0  13.75 1 0  14 1 0  14.25 1 0  14.5 1 0  14.75 1 0  15 1 0  15.25 1 0  15.5 1 0  15.75 1 0  16 1 0  16.25 1 0  16.5 1 0  16.75 1 0  17 1 0  17.25 1 0  17.5 1 0  17.75 1 0  18 1 0  18.25 1 0  18.5 1 0  18.75 1 0  19 1 0  19.25 1 0  19.5 1 0  19.75 1 0  20 1 0  20.25 1 0  20.5 1 0  20.75 1 0  21 1 0  21.25 1 0  21.5 1 0  21.75 1 0  22 1 0  22.25 1 0  22.5 1 0  22.75 1 0  23 1 0  23.25 1 0  23.5 1 0  23.75 1 0  24 1 0  24.25 1 0  24.5 1 0  24.75 1 0  25 1 0  0 1.25 0  0.25 1.25 0  0.5 1.25 0  0.75 1.25 0  1 1.25 0  1.25 1.25 0  1.5 1.25 0  1.75 1.25 0  2 1.25 0  2.25 1.25 0  2.5 1.25 0  2.75 1.25 0  3 1.25 0  3.25 1.25 0  3.5 1.25 0  3.75 1.25 0  4 1.25 0  4.25 1.25 0  4.5 1.25 0  4.75 1.25 0  5 1.25 0  5.25 1.25 0  5.5 1.25 0  5.75 1.25 0  6 1.25 0  6.25 1.25 0  6.5 1.25 0  6.75 1.25 0  7 1.25 0  7.25 1.25 0  7.5 1.25 0  7.75 1.25 0  8 1.25 0  8.25 1.25 0  8.5 1.25 0  8.75 1.25 0  9 1.25 0  9.25 1.25 0  9.5 1.25 0  9.75 1.25 0  10 1.25 0  10.25 1.25 0  10.5 1.25 0  10.75 1.25 0  11 1.25 0  11.25 1.25 0  11.5 1.25 0  11.75 1.25 0  12 1.25 0  12.25 1.25 0  12.5 1.25 0  12.75 1.25 0  13 1.25 0  13.25 1.25 0  13.5 1.25 0  13.75 1.25 0  14 1.25 0  14.25 1.25 0  14.5 1.25 0  14.75 1.25 0  15 1.25 0  15.25 1.25 0  15.5 1.25 0  15.75 1.25 0  16 1.25 0  16.25 1.25 0  16.5 1.25 0  16.75 1.25 0  17 1.25 0  17.25 1.25 0  17.5 1.25 0  17.75 1.25 0  18 1.25 0  18.25 1.25 0  18.5 1.25 0  18.75 1.25 0  19 1.25 0  19.25 1.25 0  19.5 1.25 0  19.75 1.25 0  20 1.25 0  20.25 1.25 0  20.5 1.25 0  20.75 1.25 0  21 1.25 0  21.25 1.25 0  21.5 1.25 0  21.75 1.25 0  22 1.25 0  22.25 1.25 0  22.5 1.25 0  22.75 1.25 0  23 1.25 0  23.25 1.25 0  23.5 1.25 0  23.75 1.25 0  24 1.25 0  24.25 1.25 0  24.5 1.25 0  24.75 1.25 0  25 1.25 0  0 1.5 0  0.25 1.5 0  0.5 1.5 0  0.75 1.5 0  1 1.5 0  1.25 1.5 0  1.5 1.5 0  1.75 1.5 0  2 1.5 0  2.25 1.5 0  2.5 1.5 0  2.75 1.5 0  3 1.5 0  3.25 1.5 0  3.5 1.5 0  3.75 1.5 0  4 1.5 0  4.25 1.5 0  4.5 1.5 0  4.75 1.5 0  5 1.5 0  5.25 1.5 0  5.5 1.5 0  5.75 1.5 0  6 1.5 0  6.25 1.5 0  6.5 1.5 0  6.75 1.5 0  7 1.5 0  7.25 1.5 0  7.5 1.5 0  7.75 1.5 0  8 1.5 0  8.25 1.5 0  8.5 1.5 0  8.75 1.5 0  9 1.5 0  9.25 1.5 0  9.5 1.5 0  9.75 1.5 0  10 1.5 0  10.25 1.5 0  10.5 1.5 0  10.75 1.5 0  11 1.5 0  11.25 1.5 0  11.5 1.5 0  11.75 1.5 0  12 1.5 0  12.25 1.5 0  12.5 1.5 0  12.75 1.5 0  13 1.5 0  13.25 1.5 0  13.5 1.5 0  13.75 1.5 0  14 1.5 0  14.25 1.5 0  14.5 1.5 0  14.75 1.5 0  15 1.5 0  15.25 1.5 0  15.5 1.5 0  15.75 1.5 0  16 1.5 0  16.25 1.5 0  16.5 1.5 0  16.75 1.5 0  17 1.5 0  17.25 1.5 0  17.5 1.5 0  17.75 1.5 0  18 1.5 0  18.25 1.5 0  18.5 1.5 0  18.75 1.5 0  19 1.5 0  19.25 1.5 0  19.5 1.5 0  19.75 1.5 0  20 1.5 0  20.25 1.5 0  20.5 1.5 0  20.75 1.5 0  21 1.5 0  21.25 1.5 0  21.5 1.5 0  21.75 1.5 0  22 1.5 0  22.25 1.5 0  22.5 1.5 0  22.75 1.5 0  23 1.5 0  23.25 1.5 0  23.5 1.5 0  23.75 1.5 0  24 1.5 0  24.25 1.5 0  24.5 1.5 0  24.75 1.5 0  25 1.5 0  0 1.75 0  0.25 1.75 0  0.5 1.75 0  0.75 1.75 0  1 1.75 0  1.25 1.75 0  1.5 1.75 0  1.75 1.75 0  2 1.75 0  2.25 1.75 0  2.5 1.75 0  2.75 1.75 0  3 1.75 0  3.25 1.75 0  3.5 1.75 0  3.75 1.75 0  4 1.75 0  4.25 1.75 0  4.5 1.75 0  4.75 1.75 0  5 1.75 0  5.25 1.75 0  5.5 1.75 0  5.75 1.75 0  6 1.75 0  6.25 1.75 0  6.5 1.75 0  6.75 1.75 0  7 1.75 0  7.25 1.75 0  7.5 1.75 0  7.75 1.75 0  8 1.75 0  8.25 1.75 0  8.5 1.75 0  8.75 1.75 0  9 1.75 0  9.25 1.75 0  9.5 1.75 0  9.75 1.75 0  10 1.75 0  10.25 1.75 0  10.5 1.75 0  10.75 1.75 0  11 1.75 0  11.25 1.75 0  11.5 1.75 0  11.75 1.75 0  12 1.75 0  12.25 1.75 0  12.5 1.75 0  12.75 1.75 0  13 1.75 0  13.25 1.75 0  13.5 1.75 0  13.75 1.75 0  14 1.75 0  14.25 1.75 0  14.5 1.75 0  14.75 1.75 0  15 1.75 0  15.25 1.75 0  15.5 1.75 0  15.75 1.75 0  16 1.75 0  16.25 1.75 0  16.5 1.75 0  16.75 1.75 0  17 1.75 0  17.25 1.75 0  17.5 1.75 0  17.75 1.75 0  18 1.75 0  18.25 1.75 0  18.5 1.75 0  18.75 1.75 0  19 1.75 0  19.25 1.75 0  19.5 1.75 0  19.75 1.75 0  20 1.75 0  20.25 1.75 0  20.5 1.75 0  20.75 1.75 0  21 1.75 0  21.25 1.75 0  21.5 1.75 0  21.75 1.75 0  22 1.75 0  22.25 1.75 0  22.5 1.75 0  22.75 1.75 0  23 1.75 0  23.25 1.75 0  23.5 1.75 0  23.75 1.75 0  24 1.75 0  24.25 1.75 0  24.5 1.75 0  24.75 1.75 0  25 1.75 0  0 2 0  0.25 2 0  0.5 2 0  0.75 2 0  1 2 0  1.25 2 0  1.5 2 0  1.75 2 0  2 2 0  2.25 2 0  2.5 2 0  2.75 2 0  3 2 0  3.25 2 0  3.5 2 0  3.75 2 0  4 2 0  4.25 2 0  4.5 2 0  4.75 2 0  5 2 0  5.25 2 0  5.5 2 0  5.75 2 0  6 2 0  6.25 2 0  6.5 2 0  6.75 2 0  7 2 0  7.25 2 0  7.5 2 0  7.75 2 0  8 2 0  8.25 2 0  8.5 2 0  8.75 2 0  9 2 0  9.25 2 0  9.5 2 0  9.75 2 0  10 2 0  10.25 2 0  10.5 2 0  10.75 2 0  11 2 0  11.25 2 0 
[...]
<PointData  Scalars="f_26"> 
<DataArray  type="Float64"  Name="f_26"  format="ascii">2.5477804130162445e-05  2.5469295002563613e-05  2.5450573227712095e-05  2.5420268590541542e-05  2.5377497814554933e-05  2.5321396384627951e-05  2.5251063536926550e-05  2.5165630726149779e-05  2.5064390238160501e-05  2.4946965037855811e-05  2.4813502896894685e-05  2.4664867864843890e-05  2.4502790350073504e-05  2.4329931191573591e-05  2.4149822693388134e-05  2.3966676633538184e-05  2.3785107239170950e-05  2.3609948462699659e-05  2.3446495552838143e-05  2.3301429623362960e-05  2.3183806981725185e-05  2.3103154647532839e-05  2.3062573955288343e-05  2.3053966359402063e-05  2.3063846911404260e-05  2.3081862525579406e-05  2.3102742225281653e-05  2.3124597865405645e-05  2.3147359496865904e-05  2.3171843505236757e-05  2.3199167110013272e-05  2.3230333222405252e-05  2.3265920589292485e-05  2.3305873724112498e-05  2.3349411595188572e-05  2.3395066337159116e-05  2.3440834596062124e-05  2.3484395748123102e-05  2.3523342300546365e-05  2.3555382523580838e-05  2.3578500459504831e-05  2.3591076661549906e-05  2.3591978391943250e-05  2.3580625699723785e-05  2.3557036527331298e-05  2.3521852474519249e-05  2.3476345785702287e-05  2.3422403818815681e-05  2.3362476264670308e-05  2.3299455608351178e-05  2.3236457798932449e-05  2.3176496538342726e-05  2.3122099043824377e-05  2.3074961954079431e-05  2.3035756659983881e-05  2.3004149139371831e-05  2.2979016348927916e-05  2.2958764914836433e-05  2.2941635372218949e-05  2.2925911535664920e-05  2.2910011437745932e-05  2.2892475462468361e-05  2.2871874715925755e-05  2.2846652597378634e-05  2.2814865113111314e-05  2.2773783409476075e-05  2.2719056021151823e-05  2.2643622355990195e-05  2.2535696788258308e-05  2.2398366336318151e-05  2.2323017026761843e-05  2.2386611598585313e-05  2.2549051779755560e-05  2.2756993830697639e-05  2.2986354929284903e-05  2.3226312878203398e-05  2.3468772906660606e-05  2.3706190443021226e-05  2.3931816707862606e-05  2.4140347856612492e-05  2.4328309477574618e-05  2.4494076271815997e-05  2.4637608577531991e-05  2.4760040916687891e-05  2.4863247089480084e-05  2.4949463837513037e-05  2.5021008995910326e-05  2.5080096220506718e-05  2.5128730281189379e-05  2.5168661129657758e-05  2.5201376318162834e-05  2.5228115680240479e-05  2.5249896958770328e-05  2.5267545116031799e-05  2.5281721052671273e-05  2.5292947464524542e-05  2.5301630767209861e-05  2.5308078545875698e-05  2.5312511625678863e-05  2.5315066960956176e-05  2.5315773777421464e-05  2.5464584024957514e-05  2.5457952829126265e-05  2.5439563260875992e-05  2.5409181390622700e-05  2.5366184462851360e-05  2.5309782849226651e-05  2.5239111455361484e-05  2.5153331513277853e-05  2.5051767087776048e-05  2.4934075876624091e-05  2.4800441414736648e-05  2.4651760886607516e-05  2.4489790637711119e-05  2.4317205800836660e-05  2.4137538109269281e-05  2.3954983172255670e-05  2.3774129217972592e-05  2.3599789933095551e-05  2.3437250866349937e-05  2.3293189433669115e-05  2.3176679505977761e-05  2.3097326931083696e-05  2.3058304438844450e-05  2.3051291439691987e-05  2.3062374277058982e-05  2.3081076267757509e-05  2.3102294048975548e-05  2.3124314932577403e-05  2.3147176768673260e-05  2.3171754143397523e-05  2.3199192400476687e-05  2.3230505722261814e-05  2.3266276055507399e-05  2.3306448214947088e-05  2.3350240584100115e-05  2.3396183549180128e-05  2.3442269709972336e-05  2.3486171536268447e-05  2.3525472340834468e-05  2.3557870101293429e-05  2.3581338436894954e-05  2.3594247702768285e-05  2.3595455030733176e-05  2.3584369974222841e-05  2.3560999062352688e-05  2.3525971009598285e-05  2.3480543450326426e-05  2.3426588201327749e-05  2.3366541396408966e-05  2.3303289350812316e-05  2.3239955310592888e-05  2.3179576837163853e-05  2.3124718949480303e-05  2.3077121922205770e-05  2.3037495714655342e-05  2.3005530281389638e-05  2.2980108006741693e-05  2.2959625291588278e-05  2.2942303731682215e-05  2.2926406185650873e-05  2.2910331723668604e-05  2.2892604784219219e-05  2.2871783275804004e-05  2.2846297970859620e-05  2.2814196272856056e-05  2.2772739887493891e-05  2.2717626555360254e-05  2.2641955853057687e-05  2.2535170889581068e-05  2.2402694336724296e-05  2.2328899697250681e-05  2.2390494683100829e-05  2.2551681275360163e-05  2.2759144911233739e-05  2.2988196128442911e-05  2.3227859794381711e-05  2.3470063718820707e-05  2.3707281636181321e-05  2.3932752241110748e-05  2.4141157068639936e-05  2.4329009621270008e-05  2.4494676233378660e-05  2.4638113215100489e-05  2.4760454614909665e-05  2.4863575731006071e-05  2.4949715275523237e-05  2.5021192577219870e-05  2.5080221940036787e-05  2.5128807965268794e-05  2.5168699835817502e-05  2.5201383989550966e-05  2.5228099015677418e-05  2.5249861435296398e-05  2.5267495106372133e-05  2.5281660000442889e-05  2.5292878114506921e-05  2.5301555527520937e-05  2.5308000332056894e-05  2.5312436688695693e-05  2.5315016535315717e-05  2.5315837451188644e-05  2.5431394217854338e-05  2.5425077916467703e-05  2.5406632415005899e-05  2.5375835965441700e-05  2.5332159429130963e-05  2.5274888431900753e-05  2.5203226277957691e-05  2.5116408879498572e-05  2.5013847349272419e-05  2.4895299154089766e-05  2.4761055662364694e-05  2.4612120621367987e-05  2.4450342646471917e-05  2.4278460416603786e-05  2.4100028170391871e-05  2.3919217699529372e-05  2.3740561557142675e-05  2.3568837621819306e-05  2.3409387828754865e-05  2.3269110731624615e-05  2.3157358731578485e-05  2.3083542659618337e-05  2.3049741480709452e-05  2.3046436310422205e-05  2.3059565725959368e-05  2.3079270351660360e-05  2.3100999294173809e-05  2.3123332834423605e-05  2.3146456021867198e-05  2.3171322960666113e-05  2.3199124097010611e-05  2.3230899480363354e-05  2.3267244494668061e-05  2.3308107626459063e-05  2.3352701928480468e-05  2.3399543798574568e-05  2.3446604291431607e-05  2.3491529156864616e-05  2.3531872883893681e-05  2.3565305039640745e-05  2.3589772409796101e-05  2.3603619976215278e-05  2.3605680058867345e-05  2.3595336692714030e-05  2.3572568764136524e-05  2.3537973906786585e-05  2.3492774730844993e-05  2.3438805931120239e-05  2.3378470658350586e-05  2.3314637566196148e-05  2.3250440147738961e-05  2.3188961372820343e-05  2.3132844163723182e-05  2.3083927065516530e-05  2.3043020138175134e-05  2.3009894873467221e-05  2.2983481335810941e-05  2.2962185648561578e-05  2.2944208367377391e-05  2.2927773382302809e-05  2.2911234894413116e-05  2.2893074268839941e-05  2.2871811101008676e-05  2.2845842385020597e-05  2.2813182572646498e-05  2.2771063606407460e-05  2.2715140610117840e-05  2.2638555516347369e-05  2.2530940336208215e-05  2.2400186297360855e-05  2.2331619340082614e-05  2.2396680255063922e-05  2.2558697164854160e-05  2.2765976121702178e-05  2.2994536163722002e-05  2.3233568920375968e-05  2.3475067358493235e-05  2.3711553538120058e-05  2.3936305538413508e-05  2.4144036127203667e-05  2.4331280551658780e-05  2.4496417084389355e-05  2.4639405483731148e-05  2.4761376941015184e-05  2.4864199854040877e-05  2.4950103906591942e-05  2.5021398703351306e-05  2.5080289093102569e-05  2.5128771066276333e-05  2.5168586320847434e-05  2.5201215014725386e-05  2.5227890615505119e-05  2.5249625568631084e-05  2.5267240568833131e-05  2.5281393217295443e-05  2.5292603864804248e-05  2.5301277709930566e-05  2.5307723000286681e-05  2.5312165749481395e-05  2.5314762059631732e-05  2.5315609937008687e-05  2.5376098864686046e-05  2.5369694749798866e-05  2.5350840527006008e-05  2.5319260209414114e-05  2.5274462068270662e-05  2.5215803392288922e-05  2.5142581340167300e-05  2.5054148787388417e-05  2.4950058169495052e-05  2.4830229713942171e-05  2.4695129882312394e-05  2.4545933966398580e-05  2.4384637190268711e-05  2.4214076594647565e-05  2.4037837026174396e-05  2.3860047631868104e-05  2.3685161287799876e-05  2.3517933219683464e-05  2.3363874911351568e-05  2.3230365184679381e-05  2.3127205485817371e-05  2.3063098158819488e-05  2.3037808598707265e-05  2.3039948453442823e-05  2.3055768093376495e-05  2.3076670182115367e-05  2.3098967697049504e-05  2.3121656329552194e-05  2.3145120031186409e-05  2.3170413790522294e-05  2.3198783455121339e-05  2.3231301425866572e-05  2.3268580159799797e-05  2.3310571451122965e-05  2.3356477551936815e-05  2.3404790078609675e-05  2.3453443326181576e-05  2.3500038545928360e-05  2.3542083193370334e-05  2.3577201324743573e-05  2.3603297457498615e-05  2.3618677213141606e-05  2.3622134958603915e-05  2.3613016164593307e-05  2.3591258269216331e-05  2.3557412280393901e-05  2.3512647531810691e-05  2.3458740321667679e-05  2.3398038286734926e-05  2.3333374046105523e-05  2.3267885610520156e-05  2.3204715572757136e-05  2.3146620381752821e-05  2.3095588994970602e-05  2.3052591217737506e-05  2.3017535955633139e-05  2.2989442140363106e-05  2.2966745604111800e-05  2.2947624944022817e-05  2.2930248748769638e-05  2.2912901439383872e-05  2.2893992791451834e-05  2.2871974176848556e-05  2.2845175700036950e-05  2.2811540634325382e-05  2.2768214625077804e-05  2.2710740159448662e-05  2.2632207237946682e-05  2.2522575929943848e-05  2.2394220120410915e-05  2.2334506606047870e-05  2.2406175326253182e-05  2.2570143276554218e-05  2.2777336619266467e-05  2.3005178205888337e-05  2.3243217190642869e-05  2.3483558443698817e-05  2.3718802189157476e-05  2.3942304111705882e-05  2.4148845694130102e-05  2.4335013086210541e-05  2.4499214364202174e-05  2.4641419607358927e-05  2.4762755418471460e-05  2.4865076115853217e-05  2.4950592615287917e-05  2.5021594604870315e-05  2.5080268094358041e-05  2.5128592472778080e-05  2.5168295495493966e-05  2.5200846010139733e-05  2.5227468548307464e-05  2.5249168646195077e-05  2.5266761764364737e-05  2.5280901636872062e-05  2.5292105876176547e-05  2.5300777914740469e-05  2.5307225110620632e-05  2.5311673269117549e-05  2.5314278000119817e-05  2.5315132916497874e-05  2.5296684370631359e-05  2.5290066928528647e-05  2.5270569888033106e-05  2.5237905516279756e-05  2.5191626957049322e-05  2.5131179665179331e-05  2.5055986162916200e-05  2.4965560547068010e-05  2.4859650165475284e-05  2.4738396677558713e-05  2.4602499746677061e-05  2.4453356692366207e-05  2.4293144491360452e-05  2.4124811395655730e-05  2.3951959966409287e-05  2.3778650044219280e-05  2.3609254170879768e-05  2.3448574000715668e-05  2.3302505156597425e-05  2.3179228274040596e-05  2.3088934312382364e-05  2.3038570780036701e-05  2.3024259603412472e-05  2.3032699664274321e-05  2.3051334831695092e-05  2.3073379385972037e-05  2.3096169245582318e-05  2.3119169574619266e-05  2.3142987513957200e-05  2.3168789441077765e-05  2.3197881698858057e-05  2.3231371769197162e-05  2.3269890045928435e-05  2.3313390036235072e-05  2.3361058289255877e-05  2.3411352794558459e-05  2.3462158374317512e-05  2.3511016352438662e-05  2.3555370885672885e-05  2.3592785073874512e-05  2.3621107331016277e-05  2.3638591692501374e-05  2.3643983552889202e-05  2.3636579463574819e-05  2.3616265063721530e-05  2.3583533445917048e-05  2.3539486997327091e-05  2.3485825751950666e-05  2.3424818810382657e-05  2.3359237230274112e-05  2.3292203854989042e-05  2.3226918043945352e-05  2.3166269880747705e-05  2.3112439511446960e-05  2.3066610077682355e-05  2.3028883994371614e-05  2.2998416461227529e-05  2.2973702695311961e-05  2.2952908046867604e-05  2.2934136563739874e-05  2.2915581907227133e-05  2.2895555322746341e-05  2.2872410433418430e-05  2.2844378513900670e-05  2.2809297086168215e-05  2.2764180276819102e-05  2.2704424478475855e-05  2.2623040429896159e-05  2.2510822854529560e-05  2.2386610740775243e-05  2.2339081613234478e-05  2.2419390487263584e-05  2.2585886626015683e-05  2.2792945167873378e-05  2.3019798765755359e-05  2.3256466855401928e-05  2.3495203912353241e-05  2.3728716238768277e-05  2.3950469490558761e-05  2.4155345078609200e-05  2.4340004242347007e-05  2.4502899429327773e-05  2.4644016253637979e-05  2.4764474634249105e-05  2.4866108074144877e-05  2.4951099787642066e-05  2.5021710218744380e-05  2.5080097918852575e-05  2.5128218294086069e-05  2.5167779155768667e-05  2.5200233340453309e-05  2.5226792861661676e-05  2.5248453671883991e-05  2.5266024027842414e-05  2.5280152349746434e-05  2.5291352421617882e-05  2.5300025004563488e-05  2.5306475643233602e-05  2.5310928799332062e-05  2.5313538517631058e-05  2.5314395581257982e-05  2.5190969831611450e-05  2.5184106745469199e-05  2.5163840658021567e-05  2.5129910179754502e-05  2.5081940577138215e-05  2.5019495699313267e-05  2.4942161802484676e-05  2.4849660288533914e-05  2.4741983963579986e-05  2.4619545857157654e-05  2.4483321790036145e-05  2.4334960188138835e-05  2.4176828721147160e-05  2.4011971708335358e-05  2.3843976616207601e-05  2.3676821172726458e-05  2.3514849532806012e-05  2.3363086894759654e-05  2.3228191704645317e-05  2.3119437343727575e-05  2.3046738733119845e-05  2.3013468984293483e-05  2.3011123450379473e-05  2.3025550653222988e-05  2.3046563700231244e-05  2.3069444588802475e-05  2.3092518055748885e-05  2.3115701804607197e-05  2.3139821177671685e-05  2.3166151771186085e-05  2.3196059305369415e-05  2.3230685531827701e-05  2.3270677825601114e-05  2.3315989762713845e-05  2.3365789035717400e-05  2.3418494220857502e-05  2.3471931420973646e-05  2.3523569680080207e-05  2.3570775994660476e-05  2.3611038954485509e-05  2.3642138709327121e-05  2.3662267202607057e-05  2.3670111838775429e-05  2.3664912445991795e-05  2.3646495948848799e-05  2.3615290900751299e-05  2.3572325043744183e-05  2.3519210664813078e-05  2.3458119306255974e-05  2.3391731957978522e-05  2.3323123312439175e-05  2.3255525184356660e-05  2.3191958441981920e-05  2.3134816129087429e-05  2.3085535612370486e-05  2.3044464364469943e-05  2.3010945740769245e-05  2.2983575491953198e-05  2.2960528334494481e-05  2.2939846576957789e-05  2.2919620293986658e-05  2.2898039746860236e-05  2.2873333383375552e-05  2.2843603400029382e-05  2.2806550002118669e-05  2.2759018747745174e-05  2.2696255273976027e-05  2.2611218962037369e-05  2.2496423852167336e-05  2.2378860478575269e-05  2.2346356731378160e-05  2.2436448197347058e-05  2.2605639193070328e-05  2.2812393140435585e-05  2.3037952996638794e-05  2.3272865131673673e-05  2.3509561429502556e-05  2.3740879714310915e-05  2.3960423830292406e-05  2.4163200909987051e-05  2.4345966432466424e-05  2.4507228004903350e-05  2.4646989716435449e-05  2.4766361762982367e-05  2.4867150099648921e-05  2.4951501853171567e-05  2.5021639669603669e-05  2.5079686819350367e-05  2.5127568058604833e-05  2.5166965846478085e-05  2.5199312777631435e-05  2.5225805126648087e-05  2.5247426859362019e-05  2.5264977259301156e-05  2.5279098133129670e-05  2.5290298464009546e-05  2.5298975574013433e-05  2.5305432541076472e-05  2.5309891953816960e-05  2.5312506185648001e-05  2.5313364306629504e-05  2.5056853605019289e-05  2.5049769139197268e-05  2.5028719004820036e-05  2.4993499013037688e-05  2.4943838923798863e-05  2.4879457071266445e-05  2.4800144179139246e-05  2.4705872403061865e-05  2.4596921867321062e-05  2.4474011358165554e-05  2.4338413292309623e-05  2.4192027799125152e-05  2.4037390069767597e-05  2.3877597841756286e-05  2.3716196480664205e-05  2.3557122835363397e-05  2.3404845423266433e-05  2.3264997728884574e-05  2.3145536163750035e-05  2.3056673869628712e-05  2.3006154820432543e-05  2.2991479098193163e-05  2.3000016449834764e-05  2.3019042053390773e-05  2.3041600371678209e-05  2.3064835263958840e-05  2.3087884466592720e-05  2.3111055423838580e-05  2.3135364333933145e-05  2.3162183427957240e-05  2.3192931447798429e-05  2.3228780913702601e-05  2.3270394368468934e-05  2.3317724886249405e-05  2.3369921199033151e-05  2.3425361165334131e-05  2.3481807716260691e-05  2.3536649278397475e-05  2.3587164652268226e-05  2.3630756253902633e-05  2.3665125213711068e-05  2.3688392153823399e-05  2.3699178868059380e-05  2.3696662419312113e-05  2.3680606577672321e-05  2.3651372461726047e-05  2.3609911122397320e-05  2.3557743488840753e-05  2.3496933194150467e-05  2.3430047395688740e-05  2.3360073569450092e-05  2.3290232014620023e-05  2.3223644300108614e-05  2.3162912122881940e-05  2.3109747932738894e-05  2.3064783766102740e-05  2.3027600952859336e-05  2.2996944820522731e-05  2.2971036259021861e-05  2.2947873788604130e-05  2.2925443278293322e-05  2.2901799631638092e-05  2.2875023337519963e-05  2.2843060829893123e-05  2.2803447039994224e-05  2.2752835117411200e-05  2.2686344334434639e-05  2.2597012091495198e-05  2.2480371276958642e-05  2.2372488456041638e-05  2.2357075395993386e-05  2.2457256979498721e-05  2.2628969717045121e-05  2.2835149277002659e-05  2.3059079672910922e-05  2.3291848339742334e-05  2.3526083804475303e-05  2.3754778241998788e-05  2.3971697833191637e-05  2.4171995888047290e-05  2.4352536107766927e-05  2.4511887988224648e-05  2.4650074431640585e-05  2.4768191627831520e-05  2.4868011032005905e-05  2.4951635717808621e-05  2.5021242716313370e-05  2.5078913023004629e-05  2.5126534866891818e-05  2.5165760635816015e-05  2.5197999021806466e-05  2.5224427795503284e-05  2.5246016890015674e-05  2.5263555123151296e-05  2.5277676605937024e-05  2.5288884731596262e-05  2.5297572798459060e-05  2.5304040989112536e-05  2.5308509767373837e-05  2.5311129883369998e-05  2.5311989190450836e-05  2.4892813326057827e-05  2.4885581579580701e-05  2.4863857780530358e-05  2.4827522331955142e-05  2.4776441202576672e-05  2.4710522063585601e-05  2.4629796072796131e-05  2.4534519362482060e-05  2.4425284384709623e-05  2.4303126259278512e-05  2.4169604301982076e-05  2.4026836314019596e-05  2.3877470964155697e-05  2.3724621097999202e-05  2.3571823894558590e-05  2.3423116666200839e-05  2.3283469886620374e-05  2.3159806884418730e-05  2.3061699893362272e-05  2.2998713453660651e-05  2.2973010591998871e-05  2.2975170235518251e-05  2.2991558544345209e-05  2.3013272296475937e-05  2.3036414160786451e-05  2.3059447942948936e-05  2.3082118408282166e-05  2.3105040095033406e-05  2.3129381148017788e-05  2.3156592164840041e-05  2.3188135482609790e-05  2.3225209499536153e-05  2.3268490299918417e-05  2.3317932002991839e-05  2.3372668528343546e-05  2.3431041632738930e-05  2.3490752905385170e-05  2.3549106953838257e-05  2.3603286664333273e-05  2.3650598453032476e-05  2.3688654709220222e-05  2.3715496229030142e-05  2.3729672246536973e-05  2.3730291790705565e-05  2.3717052133996518e-05  2.3690245959792035e-05  2.3650749198927962e-05  2.3599994486001611e-05  2.3539937720314280e-05  2.3473020542423520e-05  2.3402110035424759e-05  2.3330361457415385e-05  2.3260941861906502e-05  2.3196626969397118e-05  2.3139398363048603e-05  2.3090191923052968e-05  2.3048865278510084e-05  2.3014361820302838e-05  2.2984994881264623e-05  2.2958752018705404e-05  2.2933529297665381e-05  2.2907243919184644e-05  2.2877814225248437e-05  2.2843011392277748e-05  2.2800184630311709e-05  2.2745793696197534e-05  2.2674890290024204e-05  2.2580906157192898e-05  2.2463991807108536e-05  2.2368959608127738e-05  2.2371682794507064e-05  2.2481515918340608e-05  2.2655309008329703e-05  2.2860565369775347e-05  2.3082508024780088e-05  2.3312749396306321e-05  2.3544127167043890e-05  2.3769807998637066e-05  2.3983740142260581e-05  2.4181238026171419e-05  2.4359282264722719e-05  2.4516506789587652e-05  2.4652950927402356e-05  2.4769691222713578e-05  2.4868457375416583e-05  2.4951300815711271e-05  2.5020345873604254e-05  2.5077625131674829e-05  2.5124985254356110e-05  2.5164044590764473e-05  2.5196184905967911e-05  2.5222563221983761e-05  2.5244133809477317e-05  2.5261673857963913e-05  2.5275808963836644e-05  2.5287036357820956e-05  2.5295744919141814e-05  2.5302231679303339e-05  2.5306714859969459e-05  2.5309343634583805e-05  2.5310204839816807e-05  2.4698562815849338e-05  2.4691301596089568e-05  2.4669150739945703e-05  2.4632098420706034e-05  2.4580172363511791e-05  2.4513495390338164e-05  2.4432361470917830e-05  2.4337324476160449e-05  2.4229288294333442e-05  2.4109582871252300e-05  2.3980008263995896e-05  2.3842836358539990e-05  2.3700788793679561e-05  2.3557028294451002e-05  2.3415225286483206e-05  2.3279904374300530e-05  2.3157320607032112e-05  2.3056348456404276e-05  2.2986971094752591e-05  2.2953995225242422e-05  2.2951021998330885e-05  2.2964830642811955e