<?xml version="1.0"?>
<VTKFile type="UnstructuredGrid"  version="0.1"  >
<UnstructuredGrid>
<Piece  NumberOfPoints="10201" NumberOfCells="20000">
<Points>
<DataArray  type="Float64"  NumberOfComponents="3"  format="ascii">0 0 0  0.25 0 0  0.5 0 0  0.75 0 0  1 0 0  1.25 0 0  1.5 0 0  1.75 0 0  2 0 0  2.25 0 0  2.5 0 0  2.75 0 0  3 0 0  3.25 0 0  3.5 0 0  3.75 0 0  4 0 0  4.25 0 0  4.5 0 0  4.75 0 0  5 0 0  5.25 0 0  5.5 0 0  5.75 0 0  6 0 0  6.25 0 0  6.5 0 0  6.75 0 0  7 0 0  7.25 0 0  7.5 0 0  7.75 0 0  8 0 0  8.25 0 0  8.5 0 0  8.75 0 0  9 0 0  9.25 0 0  9.5 0 0  9.75 0 0  10 0 0  10.25 0 0  10.5 0 0  10.75 0 0  11 0 0  11.25 0 0  11.5 0 0  11.75 0 0  12 0 0  12.25 0 0  12.5 0 0  12.75 0 0  13 0 0  13.25 0 0  13.5 0 0  13.75 0 0  14 0 0  14.25 0 0  14.5 0 0  14.75 0 0  15 0 0  15.25 0 0  15.5 0 0  15.75 0 0  16 0 0  16.25 0 0  16.5 0 0  16.75 0 0  17 0 0  17.25 0 0  17.5 0 0  17.75 0 0  18 0 0  18.25 0 0  18.5 0 0  18.75 0 0  19 0 0  19.25 0 0  19.5 0 0  19.75 0 0  20 0 0  20.25 0 0  20.5 0 0  20.75 0 0  21 0 0  21.25 0 0  21.5 0 0  21.75 0 0  22 0 0  22.25 0 0  22.5 0 0  22.75 0 0  23 0 0  23.25 0 0  23.5 0 0  23.75 0 0  24 0 0  24.25 0 0  24.5 0 0  24.75 0 0  25 0 0  0 0.25 0  0.25 0.25 0  0.5 0.25 0  0.75 0.25 0  1 0.25 0  1.25 0.25 0  1.5 0.25 0  1.75 0.25 0  2 0.25 0  2.25 0.25 0  2.5 0.25 0  2.75 0.25 0  3 0.25 0  3.25 0.25 0  3.5 0.25 0  3.75 0.25 0  4 0.25 0  4.25 0.25 0  4.5 0.25 0  4.75 0.25 0  5 0.25 0  5.25 0.25 0  5.5 0.25 0  5.75 0.25 0  6 0.25 0  6.25 0.25 0  6.5 0.25 0  6.75 0.25 0  7 0.25 0  7.25 0.25 0  7.5 0.25 0  7.75 0.25 0  8 0.25 0  8.25 0.25 0  8.5 0.25 0  8.75 0.25 0  9 0.25 0  9.25 0.25 0  9.5 0.25 0  9.75 0.25 0  10 0.25 0  10.25 0.25 0  10.5 0.25 0  10.75 0.25 0  11 0.25 0  11.25 0.25 0  11.5 0.25 0  11.75 0.25 0  12 0.25 0  12.25 0.25 0  12.5 0.25 0  12.75 0.25 0  13 0.25 0  13.25 0.25 0  13.5 0.25 0  13.75 0.25 0  14 0.25 0  14.25 0.25 0  14.5 0.25 0  14.75 0.25 0  15 0.25 0  15.25 0.25 0  15.5 0.25 0  15.75 0.25 0  16 0.25 0  16.25 0.25 0  16.5 0.25 0  16.75 0.25 0  17 0.25 0  17.25 0.25 0  17.5 0.25 0  17.75 0.25 0  18 0.25 0  18.25 0.25 0  18.5 0.25 0  18.75 0.25 0  19 0.25 0  19.25 0.25 0  19.5 0.25 0  19.75 0.25 0  20 0.25 0  20.25 0.25 0  20.5 0.25 0  20.75 0.25 0  21 0.25 0  21.25 0.25 0  21.5 0.25 0  21.75 0.25 0  22 0.25 0  22.25 0.25 0  22.5 0.25 0  22.75 0.25 0  23 0.25 0  23.25 0.25 0  23.5 0.25 0  23.75 0.25 0  24 0.25 0  24.25 0.25 0  24.5 0.25 0  24.75 0.25 0  25 0.25 0  0 0.5 0  0.25 0.5 0  0.5 0.5 0  0.75 0.5 0  1 0.5 0  1.25 0.5 0  1.5 0.5 0  1.75 0.5 0  2 0.5 0  2.25 0.5 0  2.5 0.5 0  2.75 0.5 0  3 0.5 0  3.25 0.5 0  3.5 0.5 0  3.75 0.5 0  4 0.5 0  4.25 0.5 0  4.5 0.5 0  4.75 0.5 0  5 0.5 0  5.25 0.5 0  5.5 0.5 0  5.75 0.5 0  6 0.5 0  6.25 0.5 0  6.5 0.5 0  6.75 0.5 0  7 0.5 0  7.25 0.5 0  7.5 0.5 0  7.75 0.5 0  8 0.5 0  8.25 0.5 0  8.5 0.5 0  8.75 0.5 0  9 0.5 0  9.25 0.5 0  9.5 0.5 0  9.75 0.5 0  10 0.5 0  10.25 0.5 0  10.5 0.5 0  10.75 0.5 0  11 0.5 0  11.25 0.5 0  11.5 0.5 0  11.75 0.5 0  12 0.5 0  12.25 0.5 0  12.5 0.5 0  12.75 0.5 0  13 0.5 0  13.25 0.5 0  13.5 0.5 0  13.75 0.5 0  14 0.5 0  14.25 0.5 0  14.5 0.5 0  14.75 0.5 0  15 0.5 0  15.25 0.5 0  15.5 0.5 0  15.75 0.5 0  16 0.5 0  16.25 0.5 0  16.5 0.5 0  16.75 0.5 0  17 0.5 0  17.25 0.5 0  17.5 0.5 0  17.75 0.5 0  18 0.5 0  18.25 0.5 0  18.5 0.5 0  18.75 0.5 0  19 0.5 0  19.25 0.5 0  19.5 0.5 0  19.75 0.5 0  20 0.5 0  20.25 0.5 0  20.5 0.5 0  20.75 0.5 0  21 0.5 0  21.25 0.5 0  21.5 0.5 0  21.75 0.5 0  22 0.5 0  22.25 0.5 0  22.5 0.5 0  22.75 0.5 0  23 0.5 0  23.25 0.5 0  23.5 0.5 0  23.75 0.5 0  24 0.5 0  24.25 0.5 0  24.5 0.5 0  24.75 0.5 0  25 0.5 0  0 0.75 0  0.25 0.75 0  0.5 0.75 0  0.75 0.75 0  1 0.75 0  1.25 0.75 0  1.5 0.75 0  1.75 0.75 0  2 0.75 0  2.25 0.75 0  2.5 0.75 0  2.75 0.75 0  3 0.75 0  3.25 0.75 0  3.5 0.75 0  3.75 0.75 0  4 0.75 0  4.25 0.75 0  4.5 0.75 0  4.75 0.75 0  5 0.75 0  5.25 0.75 0  5.5 0.75 0  5.75 0.75 0  6 0.75 0  6.25 0.75 0  6.5 0.75 0  6.75 0.75 0  7 0.75 0  7.25 0.75 0  7.5 0.75 0  7.75 0.75 0  8 0.75 0  8.25 0.75 0  8.5 0.75 0  8.75 0.75 0  9 0.75 0  9.25 0.75 0  9.5 0.75 0  9.75 0.75 0  10 0.75 0  10.25 0.75 0  10.5 0.75 0  10.75 0.75 0  11 0.75 0  11.25 0.75 0  11.5 0.75 0  11.75 0.75 0  12 0.75 0  12.25 0.75 0  12.5 0.75 0  12.75 0.75 0  13 0.75 0  13.25 0.75 0  13.5 0.75 0  13.75 0.75 0  14 0.75 0  14.25 0.75 0  14.5 0.75 0  14.75 0.75 0  15 0.75 0  15.25 0.75 0  15.5 0.75 0  15.75 0.75 0  16 0.75 0  16.25 0.75 0  16.5 0.75 0  16.75 0.75 0  17 0.75 0  17.25 0.75 0  17.5 0.75 0  17.75 0.75 0  18 0.75 0  18.25 0.75 0  18.5 0.75 0  18.75 0.75 0  19 0.75 0  19.25 0.75 0  19.5 0.75 0  19.75 0.75 0  20 0.75 0  20.25 0.75 0  20.5 0.75 0  20.75 0.75 0  21 0.75 0  21.25 0.75 0  21.5 0.75 0  21.75 0.75 0  22 0.75 0  22.25 0.75 0  22.5 0.75 0  22.75 0.75 0  23 0.75 0  23.25 0.75 0  23.5 0.75 0  23.75 0.75 0  24 0.75 0  24.25 0.75 0  24.5 0.75 0  24.75 0.75 0  25 0.75 0  0 1 0  0.25 1 0  0.5 1 0  0.75 1 0  1 1 0  1.25 1 0  1.5 1 0  1.75 1 0  2 1 0  2.25 1 0  2.5 1 0  2.75 1 0  3 1 0  3.25 1 0  3.5 1 0  3.75 1 0  4 1 0  4.25 1 0  4.5 1 0  4.75 1 0  5 1 0  5.25 1 0  5.5 1 0  5.75 1 0  6 1 0  6.25 1 0  6.5 1 0  6.75 1 0  7 1 0  7.25 1 0  7.5 1 0  7.75 1 0  8 1 0  8.25 1 0  8.5 1 0  8.75 1 0  9 1 0  9.25 1 0  9.5 1 0  9.75 1 0  10 1 0  10.25 1 0  10.5 1 0  10.75 1 0  11 1 0  11.25 1 0  11.5 1 0  11.75 1 0  12 1 0  12.25 1 0  12.5 1 0  12.75 1 0  13 1 0  13.25 1 0  13.5 1 0  13.75 1 0  14 1 0  14.25 1 0  14.5 1 0  14.75 1 0  15 1 0  15.25 1 0  15.5 1 0  15.75 1 0  16 1 0  16.25 1 0  16.5 1 0  16.75 1 0  17 1 0  17.25 1 0  17.5 1 0  17.75 1 0  18 1 0  18.25 1 0  18.5 1 0  18.75 1 0  19 1 0  19.25 1 0  19.5 1 0  19.75 1 0  20 1 0  20.25 1 0  20.5 1 0  20.75 1 0  21 1 0  21.25 1 0  21.5 1 0  21.75 1 0  22 1 0  22.25 1 0  22.5 1 0  22.75 1 0  23 1 0  23.25 1 0  23.5 1 0  23.75 1 0  24 1 0  24.25 1 0  24.5 1 0  24.75 1 0  25 1 0  0 1.25 0  0.25 1.25 0  0.5 1.25 0  0.75 1.25 0  1 1.25 0  1.25 1.25 0  1.5 1.25 0  1.75 1.25 0  2 1.25 0  2.25 1.25 0  2.5 1.25 0  2.75 1.25 0  3 1.25 0  3.25 1.25 0  3.5 1.25 0  3.75 1.25 0  4 1.25 0  4.25 1.25 0  4.5 1.25 0  4.75 1.25 0  5 1.25 0  5.25 1.25 0  5.5 1.25 0  5.75 1.25 0  6 1.25 0  6.25 1.25 0  6.5 1.25 0  6.75 1.25 0  7 1.25 0  7.25 1.25 0  7.5 1.25 0  7.75 1.25 0  8 1.25 0  8.25 1.25 0  8.5 1.25 0  8.75 1.25 0  9 1.25 0  9.25 1.25 0  9.5 1.25 0  9.75 1.25 0  10 1.25 0  10.25 1.25 0  10.5 1.25 0  10.75 1.25 0  11 1.25 0  11.25 1.25 0  11.5 1.25 0  11.75 1.25 0  12 1.25 0  12.25 1.25 0  12.5 1.25 0  12.75 1.25 0  13 1.25 0  13.25 1.25 0  13.5 1.25 0  13.75 1.25 0  14 1.25 0  14.25 1.25 0  14.5 1.25 0  14.75 1.25 0  15 1.25 0  15.25 1.25 0  15.5 1.25 0  15.75 1.25 0  16 1.25 0  16.25 1.25 0  16.5 1.25 0  16.75 1.25 0  17 1.25 0  17.25 1.25 0  17.5 1.25 0  17.75 1.25 0  18 1.25 0  18.25 1.25 0  18.5 1.25 0  18.75 1.25 0  19 1.25 0  19.25 1.25 0  19.5 1.25 0  19.75 1.25 0  20 1.25 0  20.25 1.25 0  20.5 1.25 0  20.75 1.25 0  21 1.25 0  21.25 1.25 0  21.5 1.25 0  21.75 1.25 0  22 1.25 0  22.25 1.25 0  22.5 1.25 0  22.75 1.25 0  23 1.25 0  23.25 1.25 0  23.5 1.25 0  23.75 1.25 0  24 1.25 0  24.25 1.25 0  24.5 1.25 0  24.75 1.25 0  25 1.25 0  0 1.5 0  0.25 1.5 0  0.5 1.5 0  0.75 1.5 0  1 1.5 0  1.25 1.5 0  1.5 1.5 0  1.75 1.5 0  2 1.5 0  2.25 1.5 0  2.5 1.5 0  2.75 1.5 0  3 1.5 0  3.25 1.5 0  3.5 1.5 0  3.75 1.5 0  4 1.5 0  4.25 1.5 0  4.5 1.5 0  4.75 1.5 0  5 1.5 0  5.25 1.5 0  5.5 1.5 0  5.75 1.5 0  6 1.5 0  6.25 1.5 0  6.5 1.5 0  6.75 1.5 0  7 1.5 0  7.25 1.5 0  7.5 1.5 0  7.75 1.5 0  8 1.5 0  8.25 1.5 0  8.5 1.5 0  8.75 1.5 0  9 1.5 0  9.25 1.5 0  9.5 1.5 0  9.75 1.5 0  10 1.5 0  10.25 1.5 0  10.5 1.5 0  10.75 1.5 0  11 1.5 0  11.25 1.5 0  11.5 1.5 0  11.75 1.5 0  12 1.5 0  12.25 1.5 0  12.5 1.5 0  12.75 1.5 0  13 1.5 0  13.25 1.5 0  13.5 1.5 0  13.75 1.5 0  14 1.5 0  14.25 1.5 0  14.5 1.5 0  14.75 1.5 0  15 1.5 0  15.25 1.5 0  15.5 1.5 0  15.75 1.5 0  16 1.5 0  16.25 1.5 0  16.5 1.5 0  16.75 1.5 0  17 1.5 0  17.25 1.5 0  17.5 1.5 0  17.75 1.5 0  18 1.5 0  18.25 1.5 0  18.5 1.5 0  18.75 1.5 0  19 1.5 0  19.25 1.5 0  19.5 1.5 0  19.75 1.5 0  20 1.5 0  20.25 1.5 0  20.5 1.5 0  20.75 1.5 0  21 1.5 0  21.25 1.5 0  21.5 1.5 0  21.75 1.5 0  22 1.5 0  22.25 1.5 0  22.5 1.5 0  22.75 1.5 0  23 1.5 0  23.25 1.5 0  23.5 1.5 0  23.75 1.5 0  24 1.5 0  24.25 1.5 0  24.5 1.5 0  24.75 1.5 0  25 1.5 0  0 1.75 0  0.25 1.75 0  0.5 1.75 0  0.75 1.75 0  1 1.75 0  1.25 1.75 0  1.5 1.75 0  1.75 1.75 0  2 1.75 0  2.25 1.75 0  2.5 1.75 0  2.75 1.75 0  3 1.75 0  3.25 1.75 0  3.5 1.75 0  3.75 1.75 0  4 1.75 0  4.25 1.75 0  4.5 1.75 0  4.75 1.75 0  5 1.75 0  5.25 1.75 0  5.5 1.75 0  5.75 1.75 0  6 1.75 0  6.25 1.75 0  6.5 1.75 0  6.75 1.75 0  7 1.75 0  7.25 1.75 0  7.5 1.75 0  7.75 1.75 0  8 1.75 0  8.25 1.75 0  8.5 1.75 0  8.75 1.75 0  9 1.75 0  9.25 1.75 0  9.5 1.75 0  9.75 1.75 0  10 1.75 0  10.25 1.75 0  10.5 1.75 0  10.75 1.75 0  11 1.75 0  11.25 1.75 0  11.5 1.75 0  11.75 1.75 0  12 1.75 0  12.25 1.75 0  12.5 1.75 0  12.75 1.75 0  13 1.75 0  13.25 1.75 0  13.5 1.75 0  13.75 1.75 0  14 1.75 0  14.25 1.75 0  14.5 1.75 0  14.75 1.75 0  15 1.75 0  15.25 1.75 0  15.5 1.75 0  15.75 1.75 0  16 1.75 0  16.25 1.75 0  16.5 1.75 0  16.75 1.75 0  17 1.75 0  17.25 1.75 0  17.5 1.75 0  17.75 1.75 0  18 1.75 0  18.25 1.75 0  18.5 1.75 0  18.75 1.75 0  19 1.75 0  19.25 1.75 0  19.5 1.75 0  19.75 1.75 0  20 1.75 0  20.25 1.75 0  20.5 1.75 0  20.75 1.75 0  21 1.75 0  21.25 1.75 0  21.5 1.75 0  21.75 1.75 0  22 1.75 0  22.25 1.75 0  22.5 1.75 0  22.75 1.75 0  23 1.75 0  23.25 1.75 0  23.5 1.75 0  23.75 1.75 0  24 1.75 0  24.25 1.75 0  24.5 1.75 0  24.75 1.75 0  25 1.75 0  0 2 0  0.25 2 0  0.5 2 0  0.75 2 0  1 2 0  1.25 2 0  1.5 2 0  1.75 2 0  2 2 0  2.25 2 0  2.5 2 0  2.75 2 0  3 2 0  3.25 2 0  3.5 2 0  3.75 2 0  4 2 0  4.25 2 0  4.5 2 0  4.75 2 0  5 2 0  5.25 2 0  5.5 2 0  5.75 2 0  6 2 0  6.25 2 0  6.5 2 0  6.75 2 0  7 2 0  7.25 2 0  7.5 2 0  7.75 2 0  8 2 0  8.25 2 0  8.5 2 0  8.75 2 0  9 2 0  9.25 2 0  9.5 2 0  9.75 2 0  10 2 0  10.25 2 0  10.5 2 0  10.75 2 0  11 2 0  11.25 2 0 
[...]
<PointData  Scalars="f_26"> 
<DataArray  type="Float64"  Name="f_26"  format="ascii">2.5828504169990066e-05  2.5818959083702270e-05  2.5798174968840847e-05  2.5764262657598161e-05  2.5715713416513077e-05  2.5650844165791807e-05  2.5567740507197432e-05  2.5464373883172356e-05  2.5338836964214488e-05  2.5189689535109934e-05  2.5016394724810694e-05  2.4819785981765848e-05  2.4602456245672040e-05  2.4368928442651690e-05  2.4125480715736186e-05  2.3879603644905047e-05  2.3639637288017614e-05  2.3416074443236142e-05  2.3226382501098274e-05  2.3096564352471185e-05  2.3035236218611341e-05  2.3017698091705295e-05  2.3021388413695157e-05  2.3036027685049295e-05  2.3056154016494373e-05  2.3078436224146959e-05  2.3101133076325422e-05  2.3123803780031827e-05  2.3146951922113954e-05  2.3171629640174846e-05  2.3199059008751759e-05  2.3230297551880361e-05  2.3265962065374047e-05  2.3306033080434649e-05  2.3349766917939202e-05  2.3395727652103575e-05  2.3441923896688109e-05  2.3486012999531991e-05  2.3525528850476258e-05  2.3558097330820124e-05  2.3581617916658284e-05  2.3594404258960628e-05  2.3595286405119300e-05  2.3583681337365475e-05  2.3559638040326742e-05  2.3523860500997926e-05  2.3477707593962650e-05  2.3423162266852254e-05  2.3362754643505265e-05  2.3299418293912523e-05  2.3236262005943267e-05  2.3176257710316157e-05  2.3121881770893563e-05  2.3074790596021802e-05  2.3035632173782535e-05  2.3004062719730328e-05  2.2978957304132323e-05  2.2958723985024007e-05  2.2941605468214664e-05  2.2925887261923568e-05  2.2909988345488618e-05  2.2892447981287378e-05  2.2871836551038617e-05  2.2846580208107394e-05  2.2814742573607105e-05  2.2773395429979336e-05  2.2718361354540320e-05  2.2639750754117620e-05  2.2525468267646882e-05  2.2320117528009057e-05  2.2114796763975952e-05  2.2176754479201533e-05  2.2405055415942536e-05  2.2686714730229000e-05  2.2989617924258460e-05  2.3298764128546231e-05  2.3601048247616161e-05  2.3884775601924825e-05  2.4141138905877921e-05  2.4365080726740096e-05  2.4555159047728534e-05  2.4712752089627812e-05  2.4841029738662289e-05  2.4944014280358983e-05  2.5025885535850274e-05  2.5090551288131558e-05  2.5141433383727694e-05  2.5181400549318077e-05  2.5212786990845080e-05  2.5237452881183668e-05  2.5256859210005092e-05  2.5272141761786285e-05  2.5284177006855842e-05  2.5293637388687809e-05  2.5301035962221008e-05  2.5306761453498502e-05  2.5311105153806417e-05  2.5314280952650473e-05  2.5316439268608575e-05  2.5317673896125939e-05  2.5318013783345546e-05  2.5812708253017852e-05  2.5805293127388035e-05  2.5784792507212276e-05  2.5750639043261165e-05  2.5701627021898219e-05  2.5636163907580871e-05  2.5552385748556977e-05  2.5448315052774245e-05  2.5322106601230843e-05  2.5172393844222828e-05  2.4998719322233275e-05  2.4801990412059245e-05  2.4584853702274404e-05  2.4351850127200086e-05  2.4109227261435560e-05  2.3864407900138685e-05  2.3625692041984592e-05  2.3403489819870363e-05  2.3215030626526862e-05  2.3086518676984699e-05  2.3027820971513256e-05  2.3013145068476120e-05  2.3018589419958888e-05  2.3034350666687389e-05  2.3055178454515754e-05  2.3077862537772840e-05  2.3100771504762439e-05  2.3123554465829551e-05  2.3146780170281956e-05  2.3171541213333876e-05  2.3199080536960380e-05  2.3230463896662613e-05  2.3266309987957453e-05  2.3306599157007923e-05  2.3350587220821043e-05  2.3396837226864016e-05  2.3443355145489276e-05  2.3487793105358020e-05  2.3527676914448817e-05  2.3560621912209900e-05  2.3584515358520100e-05  2.3597657791409231e-05  2.3598865740719948e-05  2.3587542404406732e-05  2.3563722631175047e-05  2.3528095908517645e-05  2.3482006739464953e-05  2.3427425279804239e-05  2.3366873090377776e-05  2.3303282994906436e-05  2.3239774458818404e-05  2.3179343535748882e-05  2.3124502610121434e-05  2.3076949649262111e-05  2.3037369758176578e-05  2.3005442350706118e-05  2.2980047568901604e-05  2.2959583099828745e-05  2.2942272641113528e-05  2.2926380736008348e-05  2.2910307232529347e-05  2.2892575757113390e-05  2.2871741636134299e-05  2.2846223352127705e-05  2.2814052581774982e-05  2.2772361690331282e-05  2.2716710023509047e-05  2.2638207910055934e-05  2.2522335463609171e-05  2.2325227496874543e-05  2.2126350179546914e-05  2.2181569217468817e-05  2.2407508310656283e-05  2.2688638784248811e-05  2.2991194921196592e-05  2.3300031608440763e-05  2.3602133941497276e-05  2.3885775366496715e-05  2.4142089765524878e-05  2.4365980364758488e-05  2.4555986045937004e-05  2.4713483113970987e-05  2.4841649834250471e-05  2.4944519935753926e-05  2.5026282990368139e-05  2.5090852969900890e-05  2.5141654426301214e-05  2.5181556233882916e-05  2.5212891229572806e-05  2.5237517527971113e-05  2.5256893912983135e-05  2.5272154116477871e-05  2.5284172843942881e-05  2.5293621098024445e-05  2.5301010805352809e-05  2.5306729856015961e-05  2.5311069018164057e-05  2.5314242169258230e-05  2.5316401165825097e-05  2.5317646973539597e-05  2.5318041806155645e-05  2.5772614318908168e-05  2.5765455899637857e-05  2.5744636005678261e-05  2.5709601573807140e-05  2.5659256988799954e-05  2.5592105983260550e-05  2.5506385997435413e-05  2.5400247157952095e-05  2.5272009966129970e-05  2.5120513245978778e-05  2.4945533382218180e-05  2.4748214097179585e-05  2.4531401674644425e-05  2.4299754675328332e-05  2.4059514201057985e-05  2.3817990515088390e-05  2.3583448084215146e-05  2.3366595672158767e-05  2.3185651802334100e-05  2.3066971190724130e-05  2.3016624862494183e-05  2.3006343587002731e-05  2.3014120824079017e-05  2.3031379093555928e-05  2.3053125289195666e-05  2.3076353555837822e-05  2.3099592805676468e-05  2.3122612527739308e-05  2.3146065350830767e-05  2.3171098859980368e-05  2.3198990974432427e-05  2.3230828885975868e-05  2.3267242912797681e-05  2.3308216993128711e-05  2.3353003260338669e-05  2.3400154177204088e-05  2.3447658687011619e-05  2.3493146303795000e-05  2.3534115897948596e-05  2.3568152910216873e-05  2.3593112801219445e-05  2.3607262976279116e-05  2.3609385675225260e-05  2.3598848708666165e-05  2.3575650696461825e-05  2.3540444864770511e-05  2.3494541263219641e-05  2.3439880788152449e-05  2.3378966071521088e-05  2.3314727710537063e-05  2.3250305864123433e-05  2.3188744191750154e-05  2.3132628904246983e-05  2.3083750267230097e-05  2.3042888666356374e-05  2.3009802173396826e-05  2.2983417232653280e-05  2.2962140727825089e-05  2.2944175176911865e-05  2.2927746153837819e-05  2.2911208630808584e-05  2.2893043102888516e-05  2.2871766414287576e-05  2.2845761976263694e-05  2.2813030164036657e-05  2.2770651777227012e-05  2.2714184140327626e-05  2.2634499555171573e-05  2.2517385631781307e-05  2.2318794850284667e-05  2.2127190165820042e-05  2.2187766585941941e-05  2.2414481164029077e-05  2.2695398462164121e-05  2.2997475823556477e-05  2.3305668023635918e-05  2.3607042218365529e-05  2.3889932322557601e-05  2.4145517366518005e-05  2.4368733351603505e-05  2.4558140047027541e-05  2.4715123885198113e-05  2.4842864544372378e-05  2.4945390834949764e-05  2.5026883425237502e-05  2.5091245452584599e-05  2.5141890290872456e-05  2.5181676352918226e-05  2.5212927313001481e-05  2.5237493639029941e-05  2.5256827962337353e-05  2.5272059203491550e-05  2.5284058392164263e-05  2.5293493782025590e-05  2.5300875296361265e-05  2.5306589435513495e-05  2.5310926136714153e-05  2.5314099082714098e-05  2.5316260860871373e-05  2.5317514385314818e-05  2.5317922132136341e-05  2.5705067229358052e-05  2.5697657545518934e-05  2.5675973743738976e-05  2.5639401150550159e-05  2.5586895451271372e-05  2.5517064187909995e-05  2.5428295550619549e-05  2.5318947383515337e-05  2.5187613207970795e-05  2.5033467435386695e-05  2.4856663578612314e-05  2.4658720601731582e-05  2.4442794729889733e-05  2.4213715178337918e-05  2.3977691681585964e-05  2.3741895325338697e-05  2.3514648041358181e-05  2.3307492021798350e-05  2.3140706490937352e-05  2.3039617206355568e-05  2.3002060926647155e-05  2.2997725588930540e-05  2.3008646726800457e-05  2.3027722793955068e-05  2.3050454229281336e-05  2.3074201421963096e-05  2.3097737405505428e-05  2.3120998049797188e-05  2.3144739959826100e-05  2.3170174246195184e-05  2.3198618806431871e-05  2.3231186372434692e-05  2.3268521469203113e-05  2.3310611180617762e-05  2.3356699531993351e-05  2.3405319931288016e-05  2.3454432329633579e-05  2.3501629022595161e-05  2.3544365623429929e-05  2.3580180405310612e-05  2.3606879249479106e-05  2.3622678226353753e-05  2.3626306536776296e-05  2.3617077153751037e-05  2.3594932273630786e-05  2.3560468117076587e-05  2.3514939637803403e-05  2.3460239373496982e-05  2.3398835983977893e-05  2.3333650366437844e-05  2.3267847358563524e-05  2.3204536842740818e-05  2.3146413320430956e-05  2.3095407696376047e-05  2.3052451641177618e-05  2.3017435356809664e-05  2.2989371489667834e-05  2.2966695508431135e-05  2.2947587584037143e-05  2.2930217901085819e-05  2.2912871550636484e-05  2.2893957459042811e-05  2.2871923177589473e-05  2.2845085940279377e-05  2.2811365397939752e-05  2.2767761620215748e-05  2.2709637369185220e-05  2.2627730078659066e-05  2.2507209768932208e-05  2.2305251660172557e-05  2.2125579637811425e-05  2.2197033687895184e-05  2.2425988011460944e-05  2.2706822150846476e-05  2.3008222746848788e-05  2.3315391255762787e-05  2.3615512710290358e-05  2.3897040990325942e-05  2.4151273998546982e-05  2.4373240185504730e-05  2.4561556098596043e-05  2.4717631244385851e-05  2.4844643036810500e-05  2.4946602578996688e-05  2.5027665746841230e-05  2.5091709547195078e-05  2.5142123188613628e-05  2.5181744387712567e-05  2.5212879966634389e-05  2.5237367149694726e-05  2.5256648429091298e-05  2.5271845117884873e-05  2.5283822631698433e-05  2.5293245145206777e-05  2.5300619672806539e-05  2.5306330703800249e-05  2.5310666875477566e-05  2.5313841160014373e-05  2.5316005881719468e-05  2.5317263646992189e-05  2.5317674813319686e-05  2.5606723623053641e-05  2.5598891848239219e-05  2.5575961891586752e-05  2.5537313051629866e-05  2.5481973416612400e-05  2.5408693107658545e-05  2.5316076112366826e-05  2.5202777968535997e-05  2.5067775599531481e-05  2.4910701145835026e-05  2.4732204929507686e-05  2.4534278852100921e-05  2.4320441590579290e-05  2.4095675142716729e-05  2.3866101004908564e-05  2.3638800013415472e-05  2.3422417290386362e-05  2.3230283394029295e-05  2.3085491751373881e-05  2.3008730660867514e-05  2.2985974102245156e-05  2.2988139726496447e-05  2.3002602593221345e-05  2.3023588786045909e-05  2.3047253672143764e-05  2.3071411119177662e-05  2.3095142334567460e-05  2.3118587111146766e-05  2.3142623655779881e-05  2.3168534406124895e-05  2.3197680653082049e-05  2.3231202210525944e-05  2.3269757804057353e-05  2.3313335652911300e-05  2.3361167237437320e-05  2.3411759881861705e-05  2.3463035014673441e-05  2.3512536042652365e-05  2.3557662106850922e-05  2.3595890192039261e-05  2.3624962013509038e-05  2.3643027376840744e-05  2.3648747036049981e-05  2.3641362988119674e-05  2.3620743861987602e-05  2.3587410489635779e-05  2.3542543086140176e-05  2.3487965511508164e-05  2.3426093161238153e-05  2.3359822118876283e-05  2.3292335290924172e-05  2.3226815054407003e-05  2.3166086157964821e-05  2.3112257659323258e-05  2.3066461685238623e-05  2.3028773333290085e-05  2.2998336951296860e-05  2.2973645358781319e-05  2.2952864710685874e-05  2.2934100405619770e-05  2.2915546605281748e-05  2.2895513569459773e-05  2.2872349797251190e-05  2.2844273684804600e-05  2.2809086639319814e-05  2.2763660913872633e-05  2.2703082987619749e-05  2.2617924738714809e-05  2.2492353678188462e-05  2.2286958411053739e-05  2.2124279006652411e-05  2.2209898964490969e-05  2.2441824921595467e-05  2.2722570347725337e-05  2.3023050845692826e-05  2.3328803357819684e-05  2.3627169447880148e-05  2.3906773092433960e-05  2.4159089334602711e-05  2.4379287085309442e-05  2.4566069010334693e-05  2.4720878402569236e-05  2.4846887293575103e-05  2.4948078114101903e-05  2.5028568085507849e-05  2.5092194498856490e-05  2.5142310667585106e-05  2.5181724232652858e-05  2.5212718034833796e-05  2.5237110822842994e-05  2.5256331205185860e-05  2.5271490256526580e-05  2.5283445955581042e-05  2.5292857147289514e-05  2.5300227080445568e-05  2.5305937632640671e-05  2.5310275677351505e-05  2.5313453027639365e-05  2.5315621201899647e-05  2.5316881979073071e-05  2.5317294333453489e-05  2.5473866827318574e-05  2.5465572598350151e-05  2.5441182816729314e-05  2.5400127813193630e-05  2.5341559644108037e-05  2.5264434084632731e-05  2.5167651785444344e-05  2.5050262862531267e-05  2.4911732857774055e-05  2.4752252114309297e-05  2.4573045987631499e-05  2.4376615151370206e-05  2.4166811479059897e-05  2.3948679841562350e-05  2.3728256033740566e-05  2.3512709388971452e-05  2.3311686944261299e-05  2.3141818621662886e-05  2.3027970169846865e-05  2.2979199424839186e-05  2.2970276783834396e-05  2.2978691910591680e-05  2.2996624959167138e-05  2.3019297035769249e-05  2.3043639269042442e-05  2.3067964369570187e-05  2.3091699626645364e-05  2.3115203478041574e-05  2.3139480769848482e-05  2.3165886132275392e-05  2.3195823579531132e-05  2.3230458762949632e-05  2.3270462790708173e-05  2.3315822448290092e-05  2.3365753134552079e-05  2.3418731277917742e-05  2.3472633377956611e-05  2.3524945872395183e-05  2.3573001969506704e-05  2.3614207039001226e-05  2.3646227870402564e-05  2.3667136963126264e-05  2.3675515178743171e-05  2.3670521403722625e-05  2.3651937482576748e-05  2.3620194019570945e-05  2.3576379386661683e-05  2.3522228982355266e-05  2.3460082948922469e-05  2.3392790458279746e-05  2.3323534291529029e-05  2.3255560230176906e-05  2.3191827918590268e-05  2.3134645339214910e-05  2.3085381304504491e-05  2.3044342988161688e-05  2.3010855545854046e-05  2.2983508848286247e-05  2.2960476974791902e-05  2.2939803026768584e-05  2.2919577245607324e-05  2.2897988524231771e-05  2.2873258511051205e-05  2.2843475563451704e-05  2.2806286838492470e-05  2.2758398506351688e-05  2.2694545616498237e-05  2.2605170629824006e-05  2.2473129655169840e-05  2.2265660345882722e-05  2.2124874756999377e-05  2.2226450728968753e-05  2.2461607980158721e-05  2.2742153939357030e-05  2.3041436195361079e-05  2.3345379199819884e-05  2.3641515265743792e-05  2.3918683154931957e-05  2.4168582421533625e-05  2.4386559801601843e-05  2.4571425914134662e-05  2.4724664707191581e-05  2.4849438775328210e-05  2.4949691724504493e-05  2.5029489820882894e-05  2.5092618723968991e-05  2.5142385588063954e-05  2.5181559764451440e-05  2.5212393860986975e-05  2.5236683561363556e-05  2.5255840310711257e-05  2.5270962649830530e-05  2.5282899539894933e-05  2.5292303420315492e-05  2.5299673044385096e-05  2.5305387174060840e-05  2.5309730549612738e-05  2.5312913526007581e-05  2.5315086578050319e-05  2.5316350615793922e-05  2.5316763766993548e-05  2.5302986593774375e-05  2.5294285122083521e-05  2.5268419730524659e-05  2.5224926866311425e-05  2.5163146544571890e-05  2.5082315773025388e-05  2.4981718359726030e-05  2.4860889875854298e-05  2.4719867494840880e-05  2.4559458204616624e-05  2.4381477037780669e-05  2.4188882548996760e-05  2.3985739815215262e-05  2.3777107271440746e-05  2.3569079789233235e-05  2.3369388894932288e-05  2.3190225816409832e-05  2.3052688956126286e-05  2.2977289424420716e-05  2.2954450927481313e-05  2.2956436278006131e-05  2.2970399885160296e-05  2.2991214302593578e-05  2.3015046244101863e-05  2.3039631852088775e-05  2.3063777881133235e-05  2.3087258572411706e-05  2.3110642542005812e-05  2.3135054442374286e-05  2.3161915582843012e-05  2.3192668595388808e-05  2.3228501708136192e-05  2.3270095715361170e-05  2.3317433841924158e-05  2.3369713736893056e-05  2.3425379206887239e-05  2.3482259270334067e-05  2.3537779468936792e-05  2.3589201762028451e-05  2.3633853610475235e-05  2.3669320076830813e-05  2.3693589277955731e-05  2.3705154774645781e-05  2.3703084364211292e-05  2.3687064181112982e-05  2.3657424087396914e-05  2.3615147463634348e-05  2.3561864176623771e-05  2.3499817230927610e-05  2.3431782689678890e-05  2.3360915499544182e-05  2.3290500771065418e-05  2.3223618689011184e-05  2.3162776450664959e-05  2.3109597086149612e-05  2.3064654208738744e-05  2.3027499732161043e-05  2.2996867409857674e-05  2.2970974948422249e-05  2.2947820556380068e-05  2.2925389635286758e-05  2.2901734912490753e-05  2.2874928027006321e-05  2.2842898359167356e-05  2.2803107939829490e-05  2.2752059335474581e-05  2.2684097922698004e-05  2.2589578569457290e-05  2.2450032448189196e-05  2.2243286337046007e-05  2.2128514327400265e-05  2.2246512905440633e-05  2.2484794618893380e-05  2.2764941689531990e-05  2.3062719454078494e-05  2.3364466178449093e-05  2.3657933830850758e-05  2.3932215208999226e-05  2.4179271604955435e-05  2.4394654467586994e-05  2.4577296192587684e-05  2.4728723608351625e-05  2.4852084127642375e-05  2.4951272675170538e-05  2.5030293587212934e-05  2.5092870641693427e-05  2.5142256178858926e-05  2.5181174423056678e-05  2.5211842598621470e-05  2.5236029580948541e-05  2.5255127007690597e-05  2.5270219061888021e-05  2.5282144454534678e-05  2.5291548400652823e-05  2.5298924620061072e-05  2.5304648404906638e-05  2.5309002124087355e-05  2.5312194513684630e-05  2.5314374922100885e-05  2.5315643439430254e-05  2.5316057597688510e-05  2.5091808111702485e-05  2.5082844305681912e-05  2.5055725677481146e-05  2.5010148970638491e-05  2.4945706827099840e-05  2.4861990076825864e-05  2.4758739667285123e-05  2.4636040341381182e-05  2.4494538254463156e-05  2.4335648593806762e-05  2.4161699296071791e-05  2.3975961890228567e-05  2.3782639917773109e-05  2.3586926014671035e-05  2.3395343906506055e-05  2.3217561776488306e-05  2.3070555346804067e-05  2.2976651525798225e-05  2.2939719072236418e-05  2.2935493675643442e-05  2.2945523038575732e-05  2.2963902741678560e-05  2.2986596722469058e-05  2.3010872765049106e-05  2.3035160222949090e-05  2.3058725500453671e-05  2.3081657196923673e-05  2.3104708406729989e-05  2.3129107497161741e-05  2.3156332202142964e-05  2.3187857319029411e-05  2.3224889348656828e-05  2.3268116219396694e-05  2.3317516943716810e-05  2.3372272583620175e-05  2.3430796510231158e-05  2.3490872202438454e-05  2.3549864943728725e-05  2.3604964436662401e-05  2.3653417910762777e-05  2.3692725631222572e-05  2.3720787896914835e-05  2.3736007234812299e-05  2.3737356189195580e-05  2.3724420343304921e-05  2.3697422777610643e-05  2.3657233531048812e-05  2.3605364468873994e-05  2.3543942808651955e-05  2.3475645396393461e-05  2.3403566607985509e-05  2.3330995416481137e-05  2.3261100855657437e-05  2.3196568409675142e-05  2.3139270614972671e-05  2.3090062246645532e-05  2.3048755566910108e-05  2.3014273593604989e-05  2.2984922243827061e-05  2.2958686777183682e-05  2.2933461629663070e-05  2.2907160392321670e-05  2.2877689853989503e-05  2.2842797489320020e-05  2.2799737209869688e-05  2.2744777604823164e-05  2.2671885894350560e-05  2.2571371763642407e-05  2.2423946766883606e-05  2.2221923965952989e-05  2.2135918754138321e-05  2.2269675148966278e-05  2.2510691474290786e-05  2.2790164745894929e-05  2.3086110535052142e-05  2.3385289070078188e-05  2.3675696027320702e-05  2.3946711100044419e-05  2.4190583947682547e-05  2.4403086894337303e-05  2.4583279624199797e-05  2.4732729078183767e-05  2.4854559736942298e-05  2.4952608071456127e-05  2.5030806755561633e-05  2.5092809130514715e-05  2.5141805783304324e-05  2.5180470496892605e-05  2.5210981217898813e-05  2.5235077262069516e-05  2.5254128577690828e-05  2.5269203742476132e-05  2.5281130416681703e-05  2.5290546095332457e-05  2.5297939170111880e-05  2.5303681296094510e-05  2.5308052382168609e-05  2.5311259508931897e-05  2.5313450908855138e-05  2.5314725920178201e-05  2.5315141600186001e-05  2.4840594538501661e-05  2.4831586097131521e-05  2.4803696364265814e-05  2.4756827436092908e-05  2.4690874173716588e-05  2.4605830413868161e-05  2.4501932139684336e-05  2.4379824074649965e-05  2.4240724922939539e-05  2.4086551928263238e-05  2.3919992902336497e-05  2.3744574500114983e-05  2.3564746300100443e-05  2.3386165048286388e-05  2.3217076216372062e-05  2.3071722227260503e-05  2.2970775372819250e-05  2.2924444491324504e-05  2.2915199408122406e-05  2.2922187777220373e-05  2.2938111467262005e-05  2.2959275200369202e