<?xml version="1.0"?>
<VTKFile type="UnstructuredGrid"  version="0.1"  >
<UnstructuredGrid>
<Piece  NumberOfPoints="10201" NumberOfCells="20000">
<Points>
<DataArray  type="Float64"  NumberOfComponents="3"  format="ascii">0 0 0  0.25 0 0  0.5 0 0  0.75 0 0  1 0 0  1.25 0 0  1.5 0 0  1.75 0 0  2 0 0  2.25 0 0  2.5 0 0  2.75 0 0  3 0 0  3.25 0 0  3.5 0 0  3.75 0 0  4 0 0  4.25 0 0  4.5 0 0  4.75 0 0  5 0 0  5.25 0 0  5.5 0 0  5.75 0 0  6 0 0  6.25 0 0  6.5 0 0  6.75 0 0  7 0 0  7.25 0 0  7.5 0 0  7.75 0 0  8 0 0  8.25 0 0  8.5 0 0  8.75 0 0  9 0 0  9.25 0 0  9.5 0 0  9.75 0 0  10 0 0  10.25 0 0  10.5 0 0  10.75 0 0  11 0 0  11.25 0 0  11.5 0 0  11.75 0 0  12 0 0  12.25 0 0  12.5 0 0  12.75 0 0  13 0 0  13.25 0 0  13.5 0 0  13.75 0 0  14 0 0  14.25 0 0  14.5 0 0  14.75 0 0  15 0 0  15.25 0 0  15.5 0 0  15.75 0 0  16 0 0  16.25 0 0  16.5 0 0  16.75 0 0  17 0 0  17.25 0 0  17.5 0 0  17.75 0 0  18 0 0  18.25 0 0  18.5 0 0  18.75 0 0  19 0 0  19.25 0 0  19.5 0 0  19.75 0 0  20 0 0  20.25 0 0  20.5 0 0  20.75 0 0  21 0 0  21.25 0 0  21.5 0 0  21.75 0 0  22 0 0  22.25 0 0  22.5 0 0  22.75 0 0  23 0 0  23.25 0 0  23.5 0 0  23.75 0 0  24 0 0  24.25 0 0  24.5 0 0  24.75 0 0  25 0 0  0 0.25 0  0.25 0.25 0  0.5 0.25 0  0.75 0.25 0  1 0.25 0  1.25 0.25 0  1.5 0.25 0  1.75 0.25 0  2 0.25 0  2.25 0.25 0  2.5 0.25 0  2.75 0.25 0  3 0.25 0  3.25 0.25 0  3.5 0.25 0  3.75 0.25 0  4 0.25 0  4.25 0.25 0  4.5 0.25 0  4.75 0.25 0  5 0.25 0  5.25 0.25 0  5.5 0.25 0  5.75 0.25 0  6 0.25 0  6.25 0.25 0  6.5 0.25 0  6.75 0.25 0  7 0.25 0  7.25 0.25 0  7.5 0.25 0  7.75 0.25 0  8 0.25 0  8.25 0.25 0  8.5 0.25 0  8.75 0.25 0  9 0.25 0  9.25 0.25 0  9.5 0.25 0  9.75 0.25 0  10 0.25 0  10.25 0.25 0  10.5 0.25 0  10.75 0.25 0  11 0.25 0  11.25 0.25 0  11.5 0.25 0  11.75 0.25 0  12 0.25 0  12.25 0.25 0  12.5 0.25 0  12.75 0.25 0  13 0.25 0  13.25 0.25 0  13.5 0.25 0  13.75 0.25 0  14 0.25 0  14.25 0.25 0  14.5 0.25 0  14.75 0.25 0  15 0.25 0  15.25 0.25 0  15.5 0.25 0  15.75 0.25 0  16 0.25 0  16.25 0.25 0  16.5 0.25 0  16.75 0.25 0  17 0.25 0  17.25 0.25 0  17.5 0.25 0  17.75 0.25 0  18 0.25 0  18.25 0.25 0  18.5 0.25 0  18.75 0.25 0  19 0.25 0  19.25 0.25 0  19.5 0.25 0  19.75 0.25 0  20 0.25 0  20.25 0.25 0  20.5 0.25 0  20.75 0.25 0  21 0.25 0  21.25 0.25 0  21.5 0.25 0  21.75 0.25 0  22 0.25 0  22.25 0.25 0  22.5 0.25 0  22.75 0.25 0  23 0.25 0  23.25 0.25 0  23.5 0.25 0  23.75 0.25 0  24 0.25 0  24.25 0.25 0  24.5 0.25 0  24.75 0.25 0  25 0.25 0  0 0.5 0  0.25 0.5 0  0.5 0.5 0  0.75 0.5 0  1 0.5 0  1.25 0.5 0  1.5 0.5 0  1.75 0.5 0  2 0.5 0  2.25 0.5 0  2.5 0.5 0  2.75 0.5 0  3 0.5 0  3.25 0.5 0  3.5 0.5 0  3.75 0.5 0  4 0.5 0  4.25 0.5 0  4.5 0.5 0  4.75 0.5 0  5 0.5 0  5.25 0.5 0  5.5 0.5 0  5.75 0.5 0  6 0.5 0  6.25 0.5 0  6.5 0.5 0  6.75 0.5 0  7 0.5 0  7.25 0.5 0  7.5 0.5 0  7.75 0.5 0  8 0.5 0  8.25 0.5 0  8.5 0.5 0  8.75 0.5 0  9 0.5 0  9.25 0.5 0  9.5 0.5 0  9.75 0.5 0  10 0.5 0  10.25 0.5 0  10.5 0.5 0  10.75 0.5 0  11 0.5 0  11.25 0.5 0  11.5 0.5 0  11.75 0.5 0  12 0.5 0  12.25 0.5 0  12.5 0.5 0  12.75 0.5 0  13 0.5 0  13.25 0.5 0  13.5 0.5 0  13.75 0.5 0  14 0.5 0  14.25 0.5 0  14.5 0.5 0  14.75 0.5 0  15 0.5 0  15.25 0.5 0  15.5 0.5 0  15.75 0.5 0  16 0.5 0  16.25 0.5 0  16.5 0.5 0  16.75 0.5 0  17 0.5 0  17.25 0.5 0  17.5 0.5 0  17.75 0.5 0  18 0.5 0  18.25 0.5 0  18.5 0.5 0  18.75 0.5 0  19 0.5 0  19.25 0.5 0  19.5 0.5 0  19.75 0.5 0  20 0.5 0  20.25 0.5 0  20.5 0.5 0  20.75 0.5 0  21 0.5 0  21.25 0.5 0  21.5 0.5 0  21.75 0.5 0  22 0.5 0  22.25 0.5 0  22.5 0.5 0  22.75 0.5 0  23 0.5 0  23.25 0.5 0  23.5 0.5 0  23.75 0.5 0  24 0.5 0  24.25 0.5 0  24.5 0.5 0  24.75 0.5 0  25 0.5 0  0 0.75 0  0.25 0.75 0  0.5 0.75 0  0.75 0.75 0  1 0.75 0  1.25 0.75 0  1.5 0.75 0  1.75 0.75 0  2 0.75 0  2.25 0.75 0  2.5 0.75 0  2.75 0.75 0  3 0.75 0  3.25 0.75 0  3.5 0.75 0  3.75 0.75 0  4 0.75 0  4.25 0.75 0  4.5 0.75 0  4.75 0.75 0  5 0.75 0  5.25 0.75 0  5.5 0.75 0  5.75 0.75 0  6 0.75 0  6.25 0.75 0  6.5 0.75 0  6.75 0.75 0  7 0.75 0  7.25 0.75 0  7.5 0.75 0  7.75 0.75 0  8 0.75 0  8.25 0.75 0  8.5 0.75 0  8.75 0.75 0  9 0.75 0  9.25 0.75 0  9.5 0.75 0  9.75 0.75 0  10 0.75 0  10.25 0.75 0  10.5 0.75 0  10.75 0.75 0  11 0.75 0  11.25 0.75 0  11.5 0.75 0  11.75 0.75 0  12 0.75 0  12.25 0.75 0  12.5 0.75 0  12.75 0.75 0  13 0.75 0  13.25 0.75 0  13.5 0.75 0  13.75 0.75 0  14 0.75 0  14.25 0.75 0  14.5 0.75 0  14.75 0.75 0  15 0.75 0  15.25 0.75 0  15.5 0.75 0  15.75 0.75 0  16 0.75 0  16.25 0.75 0  16.5 0.75 0  16.75 0.75 0  17 0.75 0  17.25 0.75 0  17.5 0.75 0  17.75 0.75 0  18 0.75 0  18.25 0.75 0  18.5 0.75 0  18.75 0.75 0  19 0.75 0  19.25 0.75 0  19.5 0.75 0  19.75 0.75 0  20 0.75 0  20.25 0.75 0  20.5 0.75 0  20.75 0.75 0  21 0.75 0  21.25 0.75 0  21.5 0.75 0  21.75 0.75 0  22 0.75 0  22.25 0.75 0  22.5 0.75 0  22.75 0.75 0  23 0.75 0  23.25 0.75 0  23.5 0.75 0  23.75 0.75 0  24 0.75 0  24.25 0.75 0  24.5 0.75 0  24.75 0.75 0  25 0.75 0  0 1 0  0.25 1 0  0.5 1 0  0.75 1 0  1 1 0  1.25 1 0  1.5 1 0  1.75 1 0  2 1 0  2.25 1 0  2.5 1 0  2.75 1 0  3 1 0  3.25 1 0  3.5 1 0  3.75 1 0  4 1 0  4.25 1 0  4.5 1 0  4.75 1 0  5 1 0  5.25 1 0  5.5 1 0  5.75 1 0  6 1 0  6.25 1 0  6.5 1 0  6.75 1 0  7 1 0  7.25 1 0  7.5 1 0  7.75 1 0  8 1 0  8.25 1 0  8.5 1 0  8.75 1 0  9 1 0  9.25 1 0  9.5 1 0  9.75 1 0  10 1 0  10.25 1 0  10.5 1 0  10.75 1 0  11 1 0  11.25 1 0  11.5 1 0  11.75 1 0  12 1 0  12.25 1 0  12.5 1 0  12.75 1 0  13 1 0  13.25 1 0  13.5 1 0  13.75 1 0  14 1 0  14.25 1 0  14.5 1 0  14.75 1 0  15 1 0  15.25 1 0  15.5 1 0  15.75 1 0  16 1 0  16.25 1 0  16.5 1 0  16.75 1 0  17 1 0  17.25 1 0  17.5 1 0  17.75 1 0  18 1 0  18.25 1 0  18.5 1 0  18.75 1 0  19 1 0  19.25 1 0  19.5 1 0  19.75 1 0  20 1 0  20.25 1 0  20.5 1 0  20.75 1 0  21 1 0  21.25 1 0  21.5 1 0  21.75 1 0  22 1 0  22.25 1 0  22.5 1 0  22.75 1 0  23 1 0  23.25 1 0  23.5 1 0  23.75 1 0  24 1 0  24.25 1 0  24.5 1 0  24.75 1 0  25 1 0  0 1.25 0  0.25 1.25 0  0.5 1.25 0  0.75 1.25 0  1 1.25 0  1.25 1.25 0  1.5 1.25 0  1.75 1.25 0  2 1.25 0  2.25 1.25 0  2.5 1.25 0  2.75 1.25 0  3 1.25 0  3.25 1.25 0  3.5 1.25 0  3.75 1.25 0  4 1.25 0  4.25 1.25 0  4.5 1.25 0  4.75 1.25 0  5 1.25 0  5.25 1.25 0  5.5 1.25 0  5.75 1.25 0  6 1.25 0  6.25 1.25 0  6.5 1.25 0  6.75 1.25 0  7 1.25 0  7.25 1.25 0  7.5 1.25 0  7.75 1.25 0  8 1.25 0  8.25 1.25 0  8.5 1.25 0  8.75 1.25 0  9 1.25 0  9.25 1.25 0  9.5 1.25 0  9.75 1.25 0  10 1.25 0  10.25 1.25 0  10.5 1.25 0  10.75 1.25 0  11 1.25 0  11.25 1.25 0  11.5 1.25 0  11.75 1.25 0  12 1.25 0  12.25 1.25 0  12.5 1.25 0  12.75 1.25 0  13 1.25 0  13.25 1.25 0  13.5 1.25 0  13.75 1.25 0  14 1.25 0  14.25 1.25 0  14.5 1.25 0  14.75 1.25 0  15 1.25 0  15.25 1.25 0  15.5 1.25 0  15.75 1.25 0  16 1.25 0  16.25 1.25 0  16.5 1.25 0  16.75 1.25 0  17 1.25 0  17.25 1.25 0  17.5 1.25 0  17.75 1.25 0  18 1.25 0  18.25 1.25 0  18.5 1.25 0  18.75 1.25 0  19 1.25 0  19.25 1.25 0  19.5 1.25 0  19.75 1.25 0  20 1.25 0  20.25 1.25 0  20.5 1.25 0  20.75 1.25 0  21 1.25 0  21.25 1.25 0  21.5 1.25 0  21.75 1.25 0  22 1.25 0  22.25 1.25 0  22.5 1.25 0  22.75 1.25 0  23 1.25 0  23.25 1.25 0  23.5 1.25 0  23.75 1.25 0  24 1.25 0  24.25 1.25 0  24.5 1.25 0  24.75 1.25 0  25 1.25 0  0 1.5 0  0.25 1.5 0  0.5 1.5 0  0.75 1.5 0  1 1.5 0  1.25 1.5 0  1.5 1.5 0  1.75 1.5 0  2 1.5 0  2.25 1.5 0  2.5 1.5 0  2.75 1.5 0  3 1.5 0  3.25 1.5 0  3.5 1.5 0  3.75 1.5 0  4 1.5 0  4.25 1.5 0  4.5 1.5 0  4.75 1.5 0  5 1.5 0  5.25 1.5 0  5.5 1.5 0  5.75 1.5 0  6 1.5 0  6.25 1.5 0  6.5 1.5 0  6.75 1.5 0  7 1.5 0  7.25 1.5 0  7.5 1.5 0  7.75 1.5 0  8 1.5 0  8.25 1.5 0  8.5 1.5 0  8.75 1.5 0  9 1.5 0  9.25 1.5 0  9.5 1.5 0  9.75 1.5 0  10 1.5 0  10.25 1.5 0  10.5 1.5 0  10.75 1.5 0  11 1.5 0  11.25 1.5 0  11.5 1.5 0  11.75 1.5 0  12 1.5 0  12.25 1.5 0  12.5 1.5 0  12.75 1.5 0  13 1.5 0  13.25 1.5 0  13.5 1.5 0  13.75 1.5 0  14 1.5 0  14.25 1.5 0  14.5 1.5 0  14.75 1.5 0  15 1.5 0  15.25 1.5 0  15.5 1.5 0  15.75 1.5 0  16 1.5 0  16.25 1.5 0  16.5 1.5 0  16.75 1.5 0  17 1.5 0  17.25 1.5 0  17.5 1.5 0  17.75 1.5 0  18 1.5 0  18.25 1.5 0  18.5 1.5 0  18.75 1.5 0  19 1.5 0  19.25 1.5 0  19.5 1.5 0  19.75 1.5 0  20 1.5 0  20.25 1.5 0  20.5 1.5 0  20.75 1.5 0  21 1.5 0  21.25 1.5 0  21.5 1.5 0  21.75 1.5 0  22 1.5 0  22.25 1.5 0  22.5 1.5 0  22.75 1.5 0  23 1.5 0  23.25 1.5 0  23.5 1.5 0  23.75 1.5 0  24 1.5 0  24.25 1.5 0  24.5 1.5 0  24.75 1.5 0  25 1.5 0  0 1.75 0  0.25 1.75 0  0.5 1.75 0  0.75 1.75 0  1 1.75 0  1.25 1.75 0  1.5 1.75 0  1.75 1.75 0  2 1.75 0  2.25 1.75 0  2.5 1.75 0  2.75 1.75 0  3 1.75 0  3.25 1.75 0  3.5 1.75 0  3.75 1.75 0  4 1.75 0  4.25 1.75 0  4.5 1.75 0  4.75 1.75 0  5 1.75 0  5.25 1.75 0  5.5 1.75 0  5.75 1.75 0  6 1.75 0  6.25 1.75 0  6.5 1.75 0  6.75 1.75 0  7 1.75 0  7.25 1.75 0  7.5 1.75 0  7.75 1.75 0  8 1.75 0  8.25 1.75 0  8.5 1.75 0  8.75 1.75 0  9 1.75 0  9.25 1.75 0  9.5 1.75 0  9.75 1.75 0  10 1.75 0  10.25 1.75 0  10.5 1.75 0  10.75 1.75 0  11 1.75 0  11.25 1.75 0  11.5 1.75 0  11.75 1.75 0  12 1.75 0  12.25 1.75 0  12.5 1.75 0  12.75 1.75 0  13 1.75 0  13.25 1.75 0  13.5 1.75 0  13.75 1.75 0  14 1.75 0  14.25 1.75 0  14.5 1.75 0  14.75 1.75 0  15 1.75 0  15.25 1.75 0  15.5 1.75 0  15.75 1.75 0  16 1.75 0  16.25 1.75 0  16.5 1.75 0  16.75 1.75 0  17 1.75 0  17.25 1.75 0  17.5 1.75 0  17.75 1.75 0  18 1.75 0  18.25 1.75 0  18.5 1.75 0  18.75 1.75 0  19 1.75 0  19.25 1.75 0  19.5 1.75 0  19.75 1.75 0  20 1.75 0  20.25 1.75 0  20.5 1.75 0  20.75 1.75 0  21 1.75 0  21.25 1.75 0  21.5 1.75 0  21.75 1.75 0  22 1.75 0  22.25 1.75 0  22.5 1.75 0  22.75 1.75 0  23 1.75 0  23.25 1.75 0  23.5 1.75 0  23.75 1.75 0  24 1.75 0  24.25 1.75 0  24.5 1.75 0  24.75 1.75 0  25 1.75 0  0 2 0  0.25 2 0  0.5 2 0  0.75 2 0  1 2 0  1.25 2 0  1.5 2 0  1.75 2 0  2 2 0  2.25 2 0  2.5 2 0  2.75 2 0  3 2 0  3.25 2 0  3.5 2 0  3.75 2 0  4 2 0  4.25 2 0  4.5 2 0  4.75 2 0  5 2 0  5.25 2 0  5.5 2 0  5.75 2 0  6 2 0  6.25 2 0  6.5 2 0  6.75 2 0  7 2 0  7.25 2 0  7.5 2 0  7.75 2 0  8 2 0  8.25 2 0  8.5 2 0  8.75 2 0  9 2 0  9.25 2 0  9.5 2 0  9.75 2 0  10 2 0  10.25 2 0  10.5 2 0  10.75 2 0  11 2 0  11.25 2 0 
[...]
<PointData  Scalars="f_26"> 
<DataArray  type="Float64"  Name="f_26"  format="ascii">2.3892064133963169e-05  2.3894375118129320e-05  2.3899763161603976e-05  2.3908161674760275e-05  2.3919221675237637e-05  2.3932453722325543e-05  2.3947298374293239e-05  2.3963178660903438e-05  2.3979542759455292e-05  2.3995896462878001e-05  2.4011824518886314e-05  2.4027001094012331e-05  2.4041190818173798e-05  2.4054242625916239e-05  2.4066078859549956e-05  2.4076681934094969e-05  2.4086080440746084e-05  2.4094336037348870e-05  2.4101531957539652e-05  2.4107763535023742e-05  2.4113130815210665e-05  2.4117733113141448e-05  2.4121665257707525e-05  2.4125015214374093e-05  2.4127862778860702e-05  2.4130279062969111e-05  2.4132326536288448e-05  2.4134059433852692e-05  2.4135524383874456e-05  2.4136761148231121e-05  2.4137803400203860e-05  2.4138679489054617e-05  2.4139413160023027e-05  2.4140024212181375e-05  2.4140529086309516e-05  2.4140941381484392e-05  2.4141272303233715e-05  2.4141531048545190e-05  2.4141725134273910e-05  2.4141860675946817e-05  2.4141942623915357e-05  2.4141974963461975e-05  2.4141960884963785e-05  2.4141902929649741e-05  2.4141803115910494e-05  2.4141663050561052e-05  2.4141484028924236e-05  2.4141267127092379e-05  2.4141013289221691e-05  2.4140723412197193e-05  2.4140398429453627e-05  2.4140039395125961e-05  2.4139647569013566e-05  2.4139224502063865e-05  2.4138772121215507e-05  2.4138292811505855e-05  2.4137789492381324e-05  2.4137265684214266e-05  2.4136725560212013e-05  2.4136173978310214e-05  2.4135616487393475e-05  2.4135059302403745e-05  2.4134509243685248e-05  2.4133973637341992e-05  2.4133460175456640e-05  2.4132976737666647e-05  2.4132531178651640e-05  2.4132131089302755e-05  2.4131783542392827e-05  2.4131494836079952e-05  2.4131270250196353e-05  2.4131113830704607e-05  2.4131028216765794e-05  2.4131014522540187e-05  2.4131072282289613e-05  2.4131199462898252e-05  2.4131392543030758e-05  2.4131646653323187e-05  2.4131955767763920e-05  2.4132312933195194e-05  2.4132710521936255e-05  2.4133140492008121e-05  2.4133594640262968e-05  2.4134064835673115e-05  2.4134543222795210e-05  2.4135022388625871e-05  2.4135495489341714e-05  2.4135956336456944e-05  2.4136399444502249e-05  2.4136820044289263e-05  2.4137214067122548e-05  2.4137578105976514e-05  2.4137909359732131e-05  2.4138205566140521e-05  2.4138464928255778e-05  2.4138686037427023e-05  2.4138867792481091e-05  2.4139009305116031e-05  2.4139109747542594e-05  2.4139167958464906e-05  2.4139180990640048e-05  2.3894297058445705e-05  2.3896160472281181e-05  2.3901384072982813e-05  2.3909668860643122e-05  2.3920617407628188e-05  2.3933732232400770e-05  2.3948455262444221e-05  2.3964212951128715e-05  2.3980456947463467e-05  2.3996695942324201e-05  2.4012516830270146e-05  2.4027595176780878e-05  2.4041696348755133e-05  2.4054669476319271e-05  2.4066436683826353e-05  2.4076979874411128e-05  2.4086326936903480e-05  2.4094538720621620e-05  2.4101697609742395e-05  2.4107898095440462e-05  2.4113239420524053e-05  2.4117820158252246e-05  2.4121734467997111e-05  2.4125069722361629e-05  2.4127905200252484e-05  2.4130311568767613e-05  2.4132350918935941e-05  2.4134077166365796e-05  2.4135536671630135e-05  2.4136768973542717e-05  2.4137807560127865e-05  2.4138680627038645e-05  2.4139411792080467e-05  2.4140020748288446e-05  2.4140523847688862e-05  2.4140934614383521e-05  2.4141264189738708e-05  2.4141521714899013e-05  2.4141714657099803e-05  2.4141849086714765e-05  2.4141929911935488e-05  2.4141961077644458e-05  2.4141945734551339e-05  2.4141886384106502e-05  2.4141785004140167e-05  2.4141643159628153e-05  2.4141462102464659e-05  2.4141242863623077e-05  2.4140986340593042e-05  2.4140693382473785e-05  2.4140364874556847e-05  2.4140001823620589e-05  2.4139605444464529e-05  2.4139177247420548e-05  2.4138719125689950e-05  2.4138233440386872e-05  2.4137723100157777e-05  2.4137191631256849e-05  2.4136643233076561e-05  2.4136082813473998e-05  2.4135515997924576e-05  2.4134949106707102e-05  2.4134389095093584e-05  2.4133843452962273e-05  2.4133320062389529e-05  2.4132827014537095e-05  2.4132372390371972e-05  2.4131964013171552e-05  2.4131609184031585e-05  2.4131314414315292e-05  2.4131085170768882e-05  2.4130925649557154e-05  2.4130838594542238e-05  2.4130825172709037e-05  2.4130884915897115e-05  2.4131015733277033e-05  2.4131213993799213e-05  2.4131474672706282e-05  2.4131791551687758e-05  2.4132157458829682e-05  2.4132564532478990e-05  2.4133004492620283e-05  2.4133468904277671e-05  2.4133949419569832e-05  2.4134437988013496e-05  2.4134927028089580e-05  2.4135409556566716e-05  2.4135879275285548e-05  2.4136330617799557e-05  2.4136758760300542e-05  2.4137159602581581e-05  2.4137529725438732e-05  2.4137866330968205e-05  2.4138167171785422e-05  2.4138430474373519e-05  2.4138654860630530e-05  2.4138839270345907e-05  2.4138982886707674e-05  2.4139085073391454e-05  2.4139145384147735e-05  2.4139164027087239e-05  2.3899463003354731e-05  2.3901162528053275e-05  2.3906171169861008e-05  2.3914202192766712e-05  2.3924855631218516e-05  2.3937639743657298e-05  2.3952007651842163e-05  2.3967398796242915e-05  2.3983277316419164e-05  2.3999162627737562e-05  2.4014649982038140e-05  2.4029420785396639e-05  2.4043243879435388e-05  2.4055969834367284e-05  2.4067520595973331e-05  2.4077876699558558e-05  2.4087063872242414e-05  2.4095140342617301e-05  2.4102185679327878e-05  2.4108291557886470e-05  2.4113554538268560e-05  2.4118070725901120e-05  2.4121932070267740e-05  2.4125224006433228e-05  2.4128024143058016e-05  2.4130401726974729e-05  2.4132417654790468e-05  2.4134124846444319e-05  2.4135568838160496e-05  2.4136788489594452e-05  2.4137816730906904e-05  2.4138681299955374e-05  2.4139405438363486e-05  2.4140008528812072e-05  2.4140506665459824e-05  2.4140913155852328e-05  2.4141238956804784e-05  2.4141493049191222e-05  2.4141682757850997e-05  2.4141814023318690e-05  2.4141891632081012e-05  2.4141919411767346e-05  2.4141900397227922e-05  2.4141836972936689e-05  2.4141730996628637e-05  2.4141583908572262e-05  2.4141396830394335e-05  2.4141170656910812e-05  2.4140906143957431e-05  2.4140603994733181e-05  2.4140264946641387e-05  2.4139889860008630e-05  2.4139479809354717e-05  2.4139036177059416e-05  2.4138560748317363e-05  2.4138055805203525e-05  2.4137524216524223e-05  2.4136969518968137e-05  2.4136395983995049e-05  2.4135808664034707e-05  2.4135213411065785e-05  2.4134616860667347e-05  2.4134026375333757e-05  2.4133449942332945e-05  2.4132896023712568e-05  2.4132373359167227e-05  2.4131890726201452e-05  2.4131456666061441e-05  2.4131079187857182e-05  2.4130765466677861e-05  2.4130521553831100e-05  2.4130352118190736e-05  2.4130260236745027e-05  2.4130247249731872e-05  2.4130312691407304e-05  2.4130454301929359e-05  2.4130668119647322e-05  2.4130948646958426e-05  2.4131289077515255e-05  2.4131681568508225e-05  2.4132117539385758e-05  2.4132587977847392e-05  2.4133083735148621e-05  2.4133595795385783e-05  2.4134115507044125e-05  2.4134634769196407e-05  2.4135146168856643e-05  2.4135643069727147e-05  2.4136119655646493e-05  2.4136570934298083e-05  2.4136992708141442e-05  2.4137381520143656e-05  2.4137734581848410e-05  2.4138049690798529e-05  2.4138325143533982e-05  2.4138559649615196e-05  2.4138752251955211e-05  2.4138902260718441e-05  2.4139009216320344e-05  2.4139072920319228e-05  2.4139093606415737e-05  2.3907522356908203e-05  2.3909108438700003e-05  2.3913863014117583e-05  2.3921530423317475e-05  2.3931731046005563e-05  2.3943993935787818e-05  2.3957794918957503e-05  2.3972596427595727e-05  2.3987883929737886e-05  2.4003195042928643e-05  2.4018139278478005e-05  2.4032408131903541e-05  2.4045776590623498e-05  2.4058097950798930e-05  2.4069294139797767e-05  2.4079343639926781e-05  2.4088268752636689e-05  2.4096123474106791e-05  2.4102982783554906e-05  2.4108933743323862e-05  2.4114068505259076e-05  2.4118479113924551e-05  2.4122253880325007e-05  2.4125475049630448e-05  2.4128217481999020e-05  2.4130548088943308e-05  2.4132525805012488e-05  2.4134201916353547e-05  2.4135620608053261e-05  2.4136819627852138e-05  2.4137830993540672e-05  2.4138681694953411e-05  2.4139394359484583e-05  2.4139987863283417e-05  2.4140477879653488e-05  2.4140877362537920e-05  2.4141196967073522e-05  2.4141445411661708e-05  2.4141629787324648e-05  2.4141755820666445e-05  2.4141828096819328e-05  2.4141850248522895e-05  2.4141825117097655e-05  2.4141754890622456e-05  2.4141641224163537e-05  2.4141485346458747e-05  2.4141288157041409e-05  2.4141050317387594e-05  2.4140772339268928e-05  2.4140454673063287e-05  2.4140097798284356e-05  2.4139702318002088e-05  2.4139269058104054e-05  2.4138799171463633e-05  2.4138294246017873e-05  2.4137756414518765e-05  2.4137188462337763e-05  2.4136593928242129e-05  2.4135977191632522e-05  2.4135343538487413e-05  2.4134699197393641e-05  2.4134051336770124e-05  2.4133408014930284e-05  2.4132778076159097e-05  2.4132170988607003e-05  2.4131596623507556e-05  2.4131064979833725e-05  2.4130585863670041e-05  2.4130168536780676e-05  2.4129821353466149e-05  2.4129551408155568e-05  2.4129364217677985e-05  2.4129263461378059e-05  2.4129250799049184e-05  2.4129325781246942e-05  2.4129485859444672e-05  2.4129726495494113e-05  2.4130041361896226e-05  2.4130422617404703e-05  2.4130861237256740e-05  2.4131347374360921e-05  2.4131870727243345e-05  2.4132420892300202e-05  2.4132987681491900e-05  2.4133561391426795e-05  2.4134133015145136e-05  2.4134694393190602e-05  2.4135238305235586e-05  2.4135758507262420e-05  2.4136249721929903e-05  2.4136707591267325e-05  2.4137128601356268e-05  2.4137509988387644e-05  2.4137849634667969e-05  2.4138145962076185e-05  2.4138397829460853e-05  2.4138604439931952e-05  2.4138765264471754e-05  2.4138879989954639e-05  2.4138948499288546e-05  2.4138970869652208e-05  2.3918165152099760e-05  2.3919639370513611e-05  2.3924097442811026e-05  2.3931310663403397e-05  2.3940928083932003e-05  2.3952509651651831e-05  2.3965563524660148e-05  2.3979583949593167e-05  2.3994085563389111e-05  2.4008630830228330e-05  2.4022848804158804e-05  2.4036444935886615e-05  2.4049202868038181e-05  2.4060979930586403e-05  2.4071698350648391e-05  2.4081334118868994e-05  2.4089905140803173e-05  2.4097459877173519e-05  2.4104067244471098e-05  2.4109808172292549e-05  2.4114768926404397e-05  2.4119036111249113e-05  2.4122693151285440e-05  2.4125817999057962e-05  2.4128481810105566e-05  2.4130748344018976e-05  2.4132673884184473e-05  2.4134307506923926e-05  2.4135691568121002e-05  2.4136862308829468e-05  2.4137850509401919e-05  2.4138682144108332e-05  2.4139379005440920e-05  2.4139959280047639e-05  2.4140438067323646e-05  2.4140827837912427e-05  2.4141138833428770e-05  2.4141379411199867e-05  2.4141556339195630e-05  2.4141675046944820e-05  2.4141739838377409e-05  2.4141754072389740e-05  2.4141720316631948e-05  2.4141640479656078e-05  2.4141515926193011e-05  2.4141347579974884e-05  2.4141136018194359e-05  2.4140881561384776e-05  2.4140584362193474e-05  2.4140244496171680e-05  2.4139862057276939e-05  2.4139437260229957e-05  2.4138970551137452e-05  2.4138462726839994e-05  2.4137915062233380e-05  2.4137329443331223e-05  2.4136708502104459e-05  2.4136055747217386e-05  2.4135375682803597e-05  2.4134673905577290e-05  2.4133957169108294e-05  2.4133233403303596e-05  2.4132511677355266e-05  2.4131802095928196e-05  2.4131115621377418e-05  2.4130463819354524e-05  2.4129858531120506e-05  2.4129311482806804e-05  2.4128833849082451e-05  2.4128435795317164e-05  2.4128126027411973e-05  2.4127911381096633e-05  2.4127796482000320e-05  2.4127783503911322e-05  2.4127872045564765e-05  2.4128059136742741e-05  2.4128339373554873e-05  2.4128705171836726e-05  2.4129147118010051e-05  2.4129654389621987e-05  2.4130215213846728e-05  2.4130817331724010e-05  2.4131448438563840e-05  2.4132096576108488e-05  2.4132750458807221e-05  2.4133399723949847e-05  2.4134035102528634e-05  2.4134648513857500e-05  2.4135233091731255e-05  2.4135783153076028e-05  2.4136294121669861e-05  2.4136762419812427e-05  2.4137185340106407e-05  2.4137560908133538e-05  2.4137887745114236e-05  2.4138164937943869e-05  2.4138391922534460e-05  2.4138568385166615e-05  2.4138694184877982e-05  2.4138769295191851e-05  2.4138793750029519e-05  2.3930947886101217e-05  2.3932303533892615e-05  2.3936427738154391e-05  2.3943115945903727e-05  2.3952049260089477e-05  2.3962824615035593e-05  2.3974989371104985e-05  2.3988076365327444e-05  2.4001635631354259e-05  2.4015259873446072e-05  2.4028602072043182e-05  2.4041384935830511e-05  2.4053403009039729e-05  2.4064518945549207e-05  2.4074655755249645e-05  2.4083786784823950e-05  2.4091924928319966e-05  2.4099112188623342e-05  2.4105410322335913e-05  2.4110892958317384e-05  2.4115639313940741e-05  2.4119729449025801e-05  2.4123240886851938e-05  2.4126246379091349e-05  2.4128812580010410e-05  2.4130999409711961e-05  2.4132859914587350e-05  2.4134440466995156e-05  2.4135781179985928e-05  2.4136916443511103e-05  2.4137875514532274e-05  2.4138683114419179e-05  2.4139360003271280e-05  2.4139923512922331e-05  2.4140388029111940e-05  2.4140765419347613e-05  2.4141065406977816e-05  2.4141295894492978e-05  2.4141463240504893e-05  2.4141572495564980e-05  2.4141627602224694e-05  2.4141631564703457e-05  2.4141586593342633e-05  2.4141494228776487e-05  2.4141355450498094e-05  2.4141170774268260e-05  2.4140940342616683e-05  2.4140664012506786e-05  2.4140341444053254e-05  2.4139972193954840e-05  2.4139555816981162e-05  2.4139091978367946e-05  2.4138580579259285e-05  2.4138021896315925e-05  2.4137416735222444e-05  2.4136766596031589e-05  2.4136073846079416e-05  2.4135341893647221e-05  2.4134575352772447e-05  2.4133780186852640e-05  2.4132963816277296e-05  2.4132135173685042e-05  2.4131304690057256e-05  2.4130484196195953e-05  2.4129686727572647e-05  2.4128926226254951e-05  2.4128217141496166e-05  2.4127573940107213e-05  2.4127010548016644e-05  2.4126539754219434e-05  2.4126172616183661e-05  2.4125917910330241e-05  2.4125781671336528e-05  2.4125766859214439e-05  2.4125873183585052e-05  2.4126097101290254e-05  2.4126431988068085e-05  2.4126868469470119e-05  2.4127394882540581e-05  2.4127997829699474e-05  2.4128662780854376e-05  2.4129374679326528e-05  2.4130118511289528e-05  2.4130879806062538e-05  2.4131645044402861e-05  2.4132401962452464e-05  2.4133139748913563e-05  2.4133849141384608e-05  2.4134522434002895e-05  2.4135153412427932e-05  2.4135737233898839e-05  2.4136270269973740e-05  2.4136749928092194e-05  2.4137174465801800e-05  2.4137542808820647e-05  2.4137854381431525e-05  2.4138108955233780e-05  2.4138306519987440e-05  2.4138447177769598e-05  2.4138531058117395e-05  2.4138558247059295e-05  2.3945358151162877e-05  2.3946589780730293e-05  2.3950353467743240e-05  2.3956467702984633e-05  2.3964647129001179e-05  2.3974528991958644e-05  2.3985704083143152e-05  2.3997748314620139e-05  2.4010251442555164e-05  2.4022840307172327e-05  2.4035195109380894e-05  2.4047058417997685e-05  2.4058237569807382e-05  2.4068601760679854e-05  2.4078075408132127e-05  2.4086629350177044e-05  2.4094271227210396e-05  2.4101036073044527e-05  2.4106977800411649e-05  2.4112161960641559e-05  2.4116659915284575e-05  2.4120544386721685e-05  2.4123886249293051e-05  2.4126752369437963e-05  2.4129204288216696e-05  2.4131297549001012e-05  2.4133081496293923e-05  2.4134599400720969e-05  2.4135888795037014e-05  2.4136981933455442e-05  2.4137906310218418e-05  2.4138685192607481e-05  2.4139338138686847e-05  2.4139881481453026e-05  2.4140328769344207e-05  2.4140691158866992e-05  2.4140977759000635e-05  2.4141195929532674e-05  2.4141351536966838e-05  2.4141449172441759e-05  2.4141492336448497e-05  2.4141483595215347e-05  2.4141424713567732e-05  2.4141316768957305e-05  2.4141160251243236e-05  2.4140955152731125e-05  2.4140701052939021e-05  2.4140397202555836e-05  2.4140042611055054e-05  2.4139636142378805e-05  2.4139176622947157e-05  2.4138662965890222e-05  2.4138094314746549e-05  2.4137470208811211e-05  2.4136790770744296e-05  2.4136056914878776e-05  2.4135270571852597e-05  2.4134434921765743e-05  2.4133554624167689e-05  2.4132636029092497e-05  2.4131687349513454e-05  2.4130718772578404e-05  2.4129742485520599e-05  2.4128772592966663e-05  2.4127824906144346e-05  2.4126916591640186e-05  2.4126065677862053e-05  2.4125290430648054e-05  2.4124608624325012e-05  2.4124036749173012e-05  2.4123589208543188e-05  2.4123277566620393e-05  2.4123109909235663e-05  2.4123090374246992e-05  2.4123218894971037e-05  2.4123491181319978e-05  2.4123898941070629e-05  2.4124430321087698e-05  2.4125070528431535e-05  2.4125802576691551e-05  2.4126608095234173e-05  2.4127468138790450e-05  2.4128363941228086e-05  2.4129277568848852e-05  2.4130192443008653e-05  2.4131093717076735e-05  2.4131968506820742e-05  2.4132805984841614e-05  2.4133597357928402e-05  2.4134335750992865e-05  2.4135016022884396e-05  2.4135634538490465e-05  2.4136188918849850e-05  2.4136677787297788e-05  2.4137100525576168e-05  2.4137457049867248e-05  2.4137747613140120e-05  2.4137972637122162e-05  2.4138132574536474e-05  2.4138227799921523e-05  2.4138258525981796e-05  2.3960861715942733e-05  2.3961967317051505e-05  2.3965356587343629e-05  2.3970870375062278e-05  2.3978257137548680e-05  2.3987195676370495e-05  2.3997322128458569e-05  2.4008257759145555e-05  2.4019634444063446e-05  2.4031115489586011e-05  2.4042410442282183e-05  2.4053283554683702e-05  2.4063556421154689e-05  2.4073105866117584e-05  2.4081858434697037e-05  2.4089782845675020e-05  2.4096881596144822e-05  2.4103182640589277e-05  2.4108731775569147e-05  2.4113586094178379e-05  2.4117808658768402e-05  2.4121464384798517e-05  2.4124617029501100e-05  2.4127327126368892e-05  2.4129650688158549e-05  2.4131638505653108e-05  2.4133335887320579e-05  2.4134782709151801e-05  2.4136013669544565e-05  2.4137058668184490e-05  2.4137943248915437e-05  2.4138689064007986e-05  2.4139314331035983e-05  2.4139834264102842e-05  2.4140261468916223e-05  2.4140606296723143e-05  2.4140877155888708e-05  2.4141080782368447e-05  2.4141222471851784e-05  2.4141306277233191e-05  2.4141335175524439e-05  2.4141311208525778e-05  2.4141235601650722e-05  2.4141108865335784e-05  2.4140930883521622e-05  2.4140700993798293e-05  2.4140418063976706e-05  2.4140080570070529e-05  2.4139686680915980e-05  2.4139234354864877e-05  2.4138721454076122e-05  2.4138145881791109e-05  2.4137505747471361e-05  2.4136799563640459e-05  2.4136026476537546e-05  2.4135186530097654e-05  2.4134280959211933e-05  2.4133312503664731e-05  2.4132285728713908e-05  2.4131207332290842e-05  2.4130086412805820e-05  2.4128934666366381e-05  2.4127766478891723e-05  2.4126598878300970e-05  2.4125451315783441e-05  2.4124345253944840e-05  2.4123303553606150e-05  2.4122349669615108e-05  2.4121506687622664e-05  2.4120796255823920e-05  2.4120237484916291e-05  2.4119845902556393e-05  2.4119632552466062e-05  2.4119603321300566e-05  2.4119758558421711e-05  2.4120093026702995e-05  2.4120596190004594e-05  2.4121252809615603e-05  2.4122043792552345e-05  2.4122947213140565e-05  2.4123939418310383e-05  2.4124996127143914e-05  2.4126093445271749e-05  2.4127208732163628e-05  2.4128321280902822e-05  2.4129412792315895e-05  2.4130467645503157e-05  2.4131472982902678e-05  2.4132418639033567e-05  2.4133296947918380e-05  2.4134102465483973e-05  2.4134831641005542e-05  2.4135482467064823e-05  2.4136054131665392e-05  2.4136546690021592e-05  2.4136960767795444e-05  2.4137297302614117e-05  2.4137557326745111e-05  2.4137741790875466e-05  2.4137851427087528e-05  2.4137886648650604e-05  2.3976941070170401e-05  2.3977922220935801e-05  2.3980935685852283e-05  2.3985843767102627e-05  2.3992427961489810e-05  2.4000408198705144e-05  2.4009465924672413e-05  2.4019268079055711e-05  2.4029489275423429e-05  2.4039830127542594e-05  2.4050030507100225e-05  2.4059877380177339e-05  2.4069207597058856e-05  2.4077906510443387e-05  2.4085903547464672e-05  2.4093165892076471e-05  2.4099691307838279e-05  2.4105500916122679e-05  2.4110632501535713e-05  2.4115134688099424e-05  2.4119062141271486e-05  2.4122471811505599e