<?xml version="1.0"?>
<VTKFile type="UnstructuredGrid"  version="0.1"  >
<UnstructuredGrid>
<Piece  NumberOfPoints="10201" NumberOfCells="20000">
<Points>
<DataArray  type="Float64"  NumberOfComponents="3"  format="ascii">0 0 0  0.25 0 0  0.5 0 0  0.75 0 0  1 0 0  1.25 0 0  1.5 0 0  1.75 0 0  2 0 0  2.25 0 0  2.5 0 0  2.75 0 0  3 0 0  3.25 0 0  3.5 0 0  3.75 0 0  4 0 0  4.25 0 0  4.5 0 0  4.75 0 0  5 0 0  5.25 0 0  5.5 0 0  5.75 0 0  6 0 0  6.25 0 0  6.5 0 0  6.75 0 0  7 0 0  7.25 0 0  7.5 0 0  7.75 0 0  8 0 0  8.25 0 0  8.5 0 0  8.75 0 0  9 0 0  9.25 0 0  9.5 0 0  9.75 0 0  10 0 0  10.25 0 0  10.5 0 0  10.75 0 0  11 0 0  11.25 0 0  11.5 0 0  11.75 0 0  12 0 0  12.25 0 0  12.5 0 0  12.75 0 0  13 0 0  13.25 0 0  13.5 0 0  13.75 0 0  14 0 0  14.25 0 0  14.5 0 0  14.75 0 0  15 0 0  15.25 0 0  15.5 0 0  15.75 0 0  16 0 0  16.25 0 0  16.5 0 0  16.75 0 0  17 0 0  17.25 0 0  17.5 0 0  17.75 0 0  18 0 0  18.25 0 0  18.5 0 0  18.75 0 0  19 0 0  19.25 0 0  19.5 0 0  19.75 0 0  20 0 0  20.25 0 0  20.5 0 0  20.75 0 0  21 0 0  21.25 0 0  21.5 0 0  21.75 0 0  22 0 0  22.25 0 0  22.5 0 0  22.75 0 0  23 0 0  23.25 0 0  23.5 0 0  23.75 0 0  24 0 0  24.25 0 0  24.5 0 0  24.75 0 0  25 0 0  0 0.25 0  0.25 0.25 0  0.5 0.25 0  0.75 0.25 0  1 0.25 0  1.25 0.25 0  1.5 0.25 0  1.75 0.25 0  2 0.25 0  2.25 0.25 0  2.5 0.25 0  2.75 0.25 0  3 0.25 0  3.25 0.25 0  3.5 0.25 0  3.75 0.25 0  4 0.25 0  4.25 0.25 0  4.5 0.25 0  4.75 0.25 0  5 0.25 0  5.25 0.25 0  5.5 0.25 0  5.75 0.25 0  6 0.25 0  6.25 0.25 0  6.5 0.25 0  6.75 0.25 0  7 0.25 0  7.25 0.25 0  7.5 0.25 0  7.75 0.25 0  8 0.25 0  8.25 0.25 0  8.5 0.25 0  8.75 0.25 0  9 0.25 0  9.25 0.25 0  9.5 0.25 0  9.75 0.25 0  10 0.25 0  10.25 0.25 0  10.5 0.25 0  10.75 0.25 0  11 0.25 0  11.25 0.25 0  11.5 0.25 0  11.75 0.25 0  12 0.25 0  12.25 0.25 0  12.5 0.25 0  12.75 0.25 0  13 0.25 0  13.25 0.25 0  13.5 0.25 0  13.75 0.25 0  14 0.25 0  14.25 0.25 0  14.5 0.25 0  14.75 0.25 0  15 0.25 0  15.25 0.25 0  15.5 0.25 0  15.75 0.25 0  16 0.25 0  16.25 0.25 0  16.5 0.25 0  16.75 0.25 0  17 0.25 0  17.25 0.25 0  17.5 0.25 0  17.75 0.25 0  18 0.25 0  18.25 0.25 0  18.5 0.25 0  18.75 0.25 0  19 0.25 0  19.25 0.25 0  19.5 0.25 0  19.75 0.25 0  20 0.25 0  20.25 0.25 0  20.5 0.25 0  20.75 0.25 0  21 0.25 0  21.25 0.25 0  21.5 0.25 0  21.75 0.25 0  22 0.25 0  22.25 0.25 0  22.5 0.25 0  22.75 0.25 0  23 0.25 0  23.25 0.25 0  23.5 0.25 0  23.75 0.25 0  24 0.25 0  24.25 0.25 0  24.5 0.25 0  24.75 0.25 0  25 0.25 0  0 0.5 0  0.25 0.5 0  0.5 0.5 0  0.75 0.5 0  1 0.5 0  1.25 0.5 0  1.5 0.5 0  1.75 0.5 0  2 0.5 0  2.25 0.5 0  2.5 0.5 0  2.75 0.5 0  3 0.5 0  3.25 0.5 0  3.5 0.5 0  3.75 0.5 0  4 0.5 0  4.25 0.5 0  4.5 0.5 0  4.75 0.5 0  5 0.5 0  5.25 0.5 0  5.5 0.5 0  5.75 0.5 0  6 0.5 0  6.25 0.5 0  6.5 0.5 0  6.75 0.5 0  7 0.5 0  7.25 0.5 0  7.5 0.5 0  7.75 0.5 0  8 0.5 0  8.25 0.5 0  8.5 0.5 0  8.75 0.5 0  9 0.5 0  9.25 0.5 0  9.5 0.5 0  9.75 0.5 0  10 0.5 0  10.25 0.5 0  10.5 0.5 0  10.75 0.5 0  11 0.5 0  11.25 0.5 0  11.5 0.5 0  11.75 0.5 0  12 0.5 0  12.25 0.5 0  12.5 0.5 0  12.75 0.5 0  13 0.5 0  13.25 0.5 0  13.5 0.5 0  13.75 0.5 0  14 0.5 0  14.25 0.5 0  14.5 0.5 0  14.75 0.5 0  15 0.5 0  15.25 0.5 0  15.5 0.5 0  15.75 0.5 0  16 0.5 0  16.25 0.5 0  16.5 0.5 0  16.75 0.5 0  17 0.5 0  17.25 0.5 0  17.5 0.5 0  17.75 0.5 0  18 0.5 0  18.25 0.5 0  18.5 0.5 0  18.75 0.5 0  19 0.5 0  19.25 0.5 0  19.5 0.5 0  19.75 0.5 0  20 0.5 0  20.25 0.5 0  20.5 0.5 0  20.75 0.5 0  21 0.5 0  21.25 0.5 0  21.5 0.5 0  21.75 0.5 0  22 0.5 0  22.25 0.5 0  22.5 0.5 0  22.75 0.5 0  23 0.5 0  23.25 0.5 0  23.5 0.5 0  23.75 0.5 0  24 0.5 0  24.25 0.5 0  24.5 0.5 0  24.75 0.5 0  25 0.5 0  0 0.75 0  0.25 0.75 0  0.5 0.75 0  0.75 0.75 0  1 0.75 0  1.25 0.75 0  1.5 0.75 0  1.75 0.75 0  2 0.75 0  2.25 0.75 0  2.5 0.75 0  2.75 0.75 0  3 0.75 0  3.25 0.75 0  3.5 0.75 0  3.75 0.75 0  4 0.75 0  4.25 0.75 0  4.5 0.75 0  4.75 0.75 0  5 0.75 0  5.25 0.75 0  5.5 0.75 0  5.75 0.75 0  6 0.75 0  6.25 0.75 0  6.5 0.75 0  6.75 0.75 0  7 0.75 0  7.25 0.75 0  7.5 0.75 0  7.75 0.75 0  8 0.75 0  8.25 0.75 0  8.5 0.75 0  8.75 0.75 0  9 0.75 0  9.25 0.75 0  9.5 0.75 0  9.75 0.75 0  10 0.75 0  10.25 0.75 0  10.5 0.75 0  10.75 0.75 0  11 0.75 0  11.25 0.75 0  11.5 0.75 0  11.75 0.75 0  12 0.75 0  12.25 0.75 0  12.5 0.75 0  12.75 0.75 0  13 0.75 0  13.25 0.75 0  13.5 0.75 0  13.75 0.75 0  14 0.75 0  14.25 0.75 0  14.5 0.75 0  14.75 0.75 0  15 0.75 0  15.25 0.75 0  15.5 0.75 0  15.75 0.75 0  16 0.75 0  16.25 0.75 0  16.5 0.75 0  16.75 0.75 0  17 0.75 0  17.25 0.75 0  17.5 0.75 0  17.75 0.75 0  18 0.75 0  18.25 0.75 0  18.5 0.75 0  18.75 0.75 0  19 0.75 0  19.25 0.75 0  19.5 0.75 0  19.75 0.75 0  20 0.75 0  20.25 0.75 0  20.5 0.75 0  20.75 0.75 0  21 0.75 0  21.25 0.75 0  21.5 0.75 0  21.75 0.75 0  22 0.75 0  22.25 0.75 0  22.5 0.75 0  22.75 0.75 0  23 0.75 0  23.25 0.75 0  23.5 0.75 0  23.75 0.75 0  24 0.75 0  24.25 0.75 0  24.5 0.75 0  24.75 0.75 0  25 0.75 0  0 1 0  0.25 1 0  0.5 1 0  0.75 1 0  1 1 0  1.25 1 0  1.5 1 0  1.75 1 0  2 1 0  2.25 1 0  2.5 1 0  2.75 1 0  3 1 0  3.25 1 0  3.5 1 0  3.75 1 0  4 1 0  4.25 1 0  4.5 1 0  4.75 1 0  5 1 0  5.25 1 0  5.5 1 0  5.75 1 0  6 1 0  6.25 1 0  6.5 1 0  6.75 1 0  7 1 0  7.25 1 0  7.5 1 0  7.75 1 0  8 1 0  8.25 1 0  8.5 1 0  8.75 1 0  9 1 0  9.25 1 0  9.5 1 0  9.75 1 0  10 1 0  10.25 1 0  10.5 1 0  10.75 1 0  11 1 0  11.25 1 0  11.5 1 0  11.75 1 0  12 1 0  12.25 1 0  12.5 1 0  12.75 1 0  13 1 0  13.25 1 0  13.5 1 0  13.75 1 0  14 1 0  14.25 1 0  14.5 1 0  14.75 1 0  15 1 0  15.25 1 0  15.5 1 0  15.75 1 0  16 1 0  16.25 1 0  16.5 1 0  16.75 1 0  17 1 0  17.25 1 0  17.5 1 0  17.75 1 0  18 1 0  18.25 1 0  18.5 1 0  18.75 1 0  19 1 0  19.25 1 0  19.5 1 0  19.75 1 0  20 1 0  20.25 1 0  20.5 1 0  20.75 1 0  21 1 0  21.25 1 0  21.5 1 0  21.75 1 0  22 1 0  22.25 1 0  22.5 1 0  22.75 1 0  23 1 0  23.25 1 0  23.5 1 0  23.75 1 0  24 1 0  24.25 1 0  24.5 1 0  24.75 1 0  25 1 0  0 1.25 0  0.25 1.25 0  0.5 1.25 0  0.75 1.25 0  1 1.25 0  1.25 1.25 0  1.5 1.25 0  1.75 1.25 0  2 1.25 0  2.25 1.25 0  2.5 1.25 0  2.75 1.25 0  3 1.25 0  3.25 1.25 0  3.5 1.25 0  3.75 1.25 0  4 1.25 0  4.25 1.25 0  4.5 1.25 0  4.75 1.25 0  5 1.25 0  5.25 1.25 0  5.5 1.25 0  5.75 1.25 0  6 1.25 0  6.25 1.25 0  6.5 1.25 0  6.75 1.25 0  7 1.25 0  7.25 1.25 0  7.5 1.25 0  7.75 1.25 0  8 1.25 0  8.25 1.25 0  8.5 1.25 0  8.75 1.25 0  9 1.25 0  9.25 1.25 0  9.5 1.25 0  9.75 1.25 0  10 1.25 0  10.25 1.25 0  10.5 1.25 0  10.75 1.25 0  11 1.25 0  11.25 1.25 0  11.5 1.25 0  11.75 1.25 0  12 1.25 0  12.25 1.25 0  12.5 1.25 0  12.75 1.25 0  13 1.25 0  13.25 1.25 0  13.5 1.25 0  13.75 1.25 0  14 1.25 0  14.25 1.25 0  14.5 1.25 0  14.75 1.25 0  15 1.25 0  15.25 1.25 0  15.5 1.25 0  15.75 1.25 0  16 1.25 0  16.25 1.25 0  16.5 1.25 0  16.75 1.25 0  17 1.25 0  17.25 1.25 0  17.5 1.25 0  17.75 1.25 0  18 1.25 0  18.25 1.25 0  18.5 1.25 0  18.75 1.25 0  19 1.25 0  19.25 1.25 0  19.5 1.25 0  19.75 1.25 0  20 1.25 0  20.25 1.25 0  20.5 1.25 0  20.75 1.25 0  21 1.25 0  21.25 1.25 0  21.5 1.25 0  21.75 1.25 0  22 1.25 0  22.25 1.25 0  22.5 1.25 0  22.75 1.25 0  23 1.25 0  23.25 1.25 0  23.5 1.25 0  23.75 1.25 0  24 1.25 0  24.25 1.25 0  24.5 1.25 0  24.75 1.25 0  25 1.25 0  0 1.5 0  0.25 1.5 0  0.5 1.5 0  0.75 1.5 0  1 1.5 0  1.25 1.5 0  1.5 1.5 0  1.75 1.5 0  2 1.5 0  2.25 1.5 0  2.5 1.5 0  2.75 1.5 0  3 1.5 0  3.25 1.5 0  3.5 1.5 0  3.75 1.5 0  4 1.5 0  4.25 1.5 0  4.5 1.5 0  4.75 1.5 0  5 1.5 0  5.25 1.5 0  5.5 1.5 0  5.75 1.5 0  6 1.5 0  6.25 1.5 0  6.5 1.5 0  6.75 1.5 0  7 1.5 0  7.25 1.5 0  7.5 1.5 0  7.75 1.5 0  8 1.5 0  8.25 1.5 0  8.5 1.5 0  8.75 1.5 0  9 1.5 0  9.25 1.5 0  9.5 1.5 0  9.75 1.5 0  10 1.5 0  10.25 1.5 0  10.5 1.5 0  10.75 1.5 0  11 1.5 0  11.25 1.5 0  11.5 1.5 0  11.75 1.5 0  12 1.5 0  12.25 1.5 0  12.5 1.5 0  12.75 1.5 0  13 1.5 0  13.25 1.5 0  13.5 1.5 0  13.75 1.5 0  14 1.5 0  14.25 1.5 0  14.5 1.5 0  14.75 1.5 0  15 1.5 0  15.25 1.5 0  15.5 1.5 0  15.75 1.5 0  16 1.5 0  16.25 1.5 0  16.5 1.5 0  16.75 1.5 0  17 1.5 0  17.25 1.5 0  17.5 1.5 0  17.75 1.5 0  18 1.5 0  18.25 1.5 0  18.5 1.5 0  18.75 1.5 0  19 1.5 0  19.25 1.5 0  19.5 1.5 0  19.75 1.5 0  20 1.5 0  20.25 1.5 0  20.5 1.5 0  20.75 1.5 0  21 1.5 0  21.25 1.5 0  21.5 1.5 0  21.75 1.5 0  22 1.5 0  22.25 1.5 0  22.5 1.5 0  22.75 1.5 0  23 1.5 0  23.25 1.5 0  23.5 1.5 0  23.75 1.5 0  24 1.5 0  24.25 1.5 0  24.5 1.5 0  24.75 1.5 0  25 1.5 0  0 1.75 0  0.25 1.75 0  0.5 1.75 0  0.75 1.75 0  1 1.75 0  1.25 1.75 0  1.5 1.75 0  1.75 1.75 0  2 1.75 0  2.25 1.75 0  2.5 1.75 0  2.75 1.75 0  3 1.75 0  3.25 1.75 0  3.5 1.75 0  3.75 1.75 0  4 1.75 0  4.25 1.75 0  4.5 1.75 0  4.75 1.75 0  5 1.75 0  5.25 1.75 0  5.5 1.75 0  5.75 1.75 0  6 1.75 0  6.25 1.75 0  6.5 1.75 0  6.75 1.75 0  7 1.75 0  7.25 1.75 0  7.5 1.75 0  7.75 1.75 0  8 1.75 0  8.25 1.75 0  8.5 1.75 0  8.75 1.75 0  9 1.75 0  9.25 1.75 0  9.5 1.75 0  9.75 1.75 0  10 1.75 0  10.25 1.75 0  10.5 1.75 0  10.75 1.75 0  11 1.75 0  11.25 1.75 0  11.5 1.75 0  11.75 1.75 0  12 1.75 0  12.25 1.75 0  12.5 1.75 0  12.75 1.75 0  13 1.75 0  13.25 1.75 0  13.5 1.75 0  13.75 1.75 0  14 1.75 0  14.25 1.75 0  14.5 1.75 0  14.75 1.75 0  15 1.75 0  15.25 1.75 0  15.5 1.75 0  15.75 1.75 0  16 1.75 0  16.25 1.75 0  16.5 1.75 0  16.75 1.75 0  17 1.75 0  17.25 1.75 0  17.5 1.75 0  17.75 1.75 0  18 1.75 0  18.25 1.75 0  18.5 1.75 0  18.75 1.75 0  19 1.75 0  19.25 1.75 0  19.5 1.75 0  19.75 1.75 0  20 1.75 0  20.25 1.75 0  20.5 1.75 0  20.75 1.75 0  21 1.75 0  21.25 1.75 0  21.5 1.75 0  21.75 1.75 0  22 1.75 0  22.25 1.75 0  22.5 1.75 0  22.75 1.75 0  23 1.75 0  23.25 1.75 0  23.5 1.75 0  23.75 1.75 0  24 1.75 0  24.25 1.75 0  24.5 1.75 0  24.75 1.75 0  25 1.75 0  0 2 0  0.25 2 0  0.5 2 0  0.75 2 0  1 2 0  1.25 2 0  1.5 2 0  1.75 2 0  2 2 0  2.25 2 0  2.5 2 0  2.75 2 0  3 2 0  3.25 2 0  3.5 2 0  3.75 2 0  4 2 0  4.25 2 0  4.5 2 0  4.75 2 0  5 2 0  5.25 2 0  5.5 2 0  5.75 2 0  6 2 0  6.25 2 0  6.5 2 0  6.75 2 0  7 2 0  7.25 2 0  7.5 2 0  7.75 2 0  8 2 0  8.25 2 0  8.5 2 0  8.75 2 0  9 2 0  9.25 2 0  9.5 2 0  9.75 2 0  10 2 0  10.25 2 0  10.5 2 0  10.75 2 0  11 2 0  11.25 2 0 
[...]
<PointData  Scalars="f_26"> 
<DataArray  type="Float64"  Name="f_26"  format="ascii">2.3398498955869214e-05  2.3398761116199893e-05  2.3399449598826726e-05  2.3400498445858552e-05  2.3401793028792799e-05  2.3403181282707276e-05  2.3404482724040599e-05  2.3405497027005569e-05  2.3406012519393013e-05  2.3405815101494835e-05  2.3404698336958801e-05  2.3402475378692293e-05  2.3398992891477578e-05  2.3394146334826421e-05  2.3387895116659605e-05  2.3380275491541698e-05  2.3371408864984743e-05  2.3361503465745770e-05  2.3350848119352202e-05  2.3339797956212765e-05  2.3328753114692961e-05  2.3318132622909128e-05  2.3308346428814476e-05  2.3299768798507256e-05  2.3292715919049768e-05  2.3287429590755614e-05  2.3284067626629698e-05  2.3282700368536422e-05  2.3283311941995208e-05  2.3285804700051569e-05  2.3290005697632161e-05  2.3295674721779489e-05  2.3302514030929541e-05  2.3310180261210461e-05  2.3318298858552634e-05  2.3326480995939780e-05  2.3334342436018469e-05  2.3341523383311756e-05  2.3347708123938866e-05  2.3352643154362039e-05  2.3356152478461939e-05  2.3358148744646719e-05  2.3358638910732004e-05  2.3357723247503791e-05  2.3355586839519439e-05  2.3352483398729600e-05  2.3348712163630663e-05  2.3344589779594996e-05  2.3340420101618704e-05  2.3336465541363534e-05  2.3332923659861144e-05  2.3329912093518256e-05  2.3327463693998656e-05  2.3325532229480693e-05  2.3324007479332104e-05  2.3322737359185867e-05  2.3321554011253173e-05  2.3320300602182181e-05  2.3318855786630392e-05  2.3317153270088624e-05  2.3315194507968312e-05  2.3313053232754805e-05  2.3310871190753651e-05  2.3308845219523939e-05  2.3307206636319870e-05  2.3306194827495588e-05  2.3306027845368769e-05  2.3306873568387400e-05  2.3308825351982933e-05  2.3311885901386687e-05  2.3315962240489972e-05  2.3320873188422034e-05  2.3326368900456501e-05  2.3332160108070824e-05  2.3337953064728554e-05  2.3343485177169897e-05  2.3348556066771270e-05  2.3353049406057585e-05  2.3356942217830621e-05  2.3360300205389251e-05  2.3363259823039734e-05  2.3365999874502412e-05  2.3368707114585327e-05  2.3371541339287070e-05  2.3374605588884551e-05  2.3377926305214248e-05  2.3381446685760604e-05  2.3385034317605653e-05  2.3388501812974787e-05  2.3391637008142134e-05  2.3394237705753545e-05  2.3396145218554562e-05  2.3397271238446606e-05  2.3397613751535539e-05  2.3397259609458971e-05  2.3396373580431697e-05  2.3395175827780096e-05  2.3393911451974480e-05  2.3392816814473419e-05  2.3392088028299022e-05  2.3391858521715806e-05  2.3398459172322576e-05  2.3398691949087565e-05  2.3399359090375162e-05  2.3400384181914271e-05  2.3401650952263743e-05  2.3403007771796518e-05  2.3404275211496677e-05  2.3405254324689415e-05  2.3405735128123519e-05  2.3405505559892849e-05  2.3404361577404934e-05  2.3402119013601597e-05  2.3398627334914890e-05  2.3393784673597133e-05  2.3387552679463916e-05  2.3379969116625207e-05  2.3371155923339012e-05  2.3361320744318555e-05  2.3350750695097771e-05  2.3339798190448891e-05  2.3328859868655771e-05  2.3318350748148946e-05  2.3308676535154220e-05  2.3300207264472187e-05  2.3293255096682912e-05  2.3288058169264888e-05  2.3284771145809056e-05  2.3283461894633087e-05  2.3284112919191561e-05  2.3286625964559768e-05  2.3290828597267804e-05  2.3296482240288574e-05  2.3303291792358004e-05  2.3310917295933194e-05  2.3318988047481057e-05  2.3327119160849992e-05  2.3334930095842243e-05  2.3342064235425187e-05  2.3348208329914179e-05  2.3353110512860580e-05  2.3356595560447165e-05  2.3358576055422444e-05  2.3359058134669605e-05  2.3358140625921663e-05  2.3356006727449437e-05  2.3352908037596330e-05  2.3349141690024395e-05  2.3345022464370778e-05  2.3340852782404893e-05  2.3336894183401756e-05  2.3333343964162418e-05  2.3330320073260914e-05  2.3327856158596376e-05  2.3325907142691796e-05  2.3324364182208169e-05  2.3323076662346803e-05  2.3321878162357203e-05  2.3320613128747453e-05  2.3319161210190713e-05  2.3317456692407162e-05  2.3315501086312125e-05  2.3313367585863198e-05  2.3311196802426427e-05  2.3309183923387649e-05  2.3307558265791850e-05  2.3306557096478080e-05  2.3306396490926117e-05  2.3307242744544726e-05  2.3309188223627466e-05  2.3312235357350996e-05  2.3316291629832095e-05  2.3321176984097861e-05  2.3326643207302880e-05  2.3332402953331573e-05  2.3338164435841451e-05  2.3343666801235521e-05  2.3348710958155155e-05  2.3353181241586854e-05  2.3357054629535010e-05  2.3360396102533484e-05  2.3363340860926327e-05  2.3366066171638599e-05  2.3368757281581261e-05  2.3371572827724074e-05  2.3374615306961988e-05  2.3377911392275539e-05  2.3381405301955570e-05  2.3384966296333644e-05  2.3388409045038127e-05  2.3391523474052385e-05  2.3394109137110926e-05  2.3396008437958957e-05  2.3397133286215706e-05  2.3397480944996830e-05  2.3397136689867351e-05  2.3396263082196826e-05  2.3395077755026686e-05  2.3393823254723498e-05  2.3392733426783087e-05  2.3392000879599760e-05  2.3391748546995974e-05  2.3398245376322941e-05  2.3398457184493770e-05  2.3399083122384895e-05  2.3400049511988018e-05  2.3401242033922091e-05  2.3402511776592334e-05  2.3403682766400057e-05  2.3404560186284619e-05  2.3404938919762097e-05  2.3404612633728292e-05  2.3403383954152922e-05  2.3401076241845348e-05  2.3397547031050442e-05  2.3392702481663824e-05  2.3386511441864150e-05  2.3379017165412237e-05  2.3370344559414598e-05  2.3360701127535526e-05  2.3350370480797812e-05  2.3339698289170242e-05  2.3329071669024868e-05  2.3318894045083950e-05  2.3309558280580710e-05  2.3301421145004154e-05  2.3294781871808953e-05  2.3289866683242314e-05  2.3286819941896101e-05  2.3285701381150504e-05  2.3286488032806384e-05  2.3289079232177622e-05  2.3293303422341084e-05  2.3298926160141671e-05  2.3305659404793482e-05  2.3313172561273242e-05  2.3321105741747687e-05  2.3329085371010235e-05  2.3336741778897117e-05  2.3343727977444415e-05  2.3349738515730221e-05  2.3354527143979370e-05  2.3357921944691597e-05  2.3359836553435015e-05  2.3360276104269381e-05  2.3359336669187613e-05  2.3357197322043281e-05  2.3354104618696038e-05  2.3350350231999887e-05  2.3346243582125278e-05  2.3342082328031444e-05  2.3338124261262439e-05  2.3334564240979783e-05  2.3331519233868437e-05  2.3329023359308052e-05  2.3327033337644825e-05  2.3325443229402048e-05  2.3324106140703362e-05  2.3322859842216485e-05  2.3321553040802606e-05  2.3320069265452735e-05  2.3318345832228509e-05  2.3316385992660904e-05  2.3314263051627309e-05  2.3312115932744873e-05  2.3310136390978561e-05  2.3308548859097800e-05  2.3307584772505371e-05  2.3307454080189335e-05  2.3308317367658522e-05  2.3310262384854816e-05  2.3313288594298075e-05  2.3317302529756262e-05  2.3322125330597579e-05  2.3327511998728396e-05  2.3333180038080193e-05  2.3338843542323715e-05  2.3344247803920554e-05  2.3349199315204003e-05  2.3353586657817172e-05  2.3357389126277499e-05  2.3360671790732194e-05  2.3363567788900237e-05  2.3366250630837810e-05  2.3368900890609783e-05  2.3371672582362739e-05  2.3374664605217993e-05  2.3377901854581296e-05  2.3381329047311224e-05  2.3384818239388654e-05  2.3388188767286802e-05  2.3391236297331938e-05  2.3393766174647440e-05  2.3395625588306915e-05  2.3396729331315990e-05  2.3397075077168538e-05  2.3396745892798750e-05  2.3395899810290279e-05  2.3394748292572969e-05  2.3393527006394746e-05  2.3392463235219449e-05  2.3391744456473708e-05  2.3391492233825318e-05  2.3397801067693881e-05  2.3397989859459139e-05  2.3398557450972998e-05  2.3399434365797885e-05  2.3400510698335231e-05  2.3401642693619845e-05  2.3402660406847227e-05  2.3403375985814171e-05  2.3403592360258575e-05  2.3403112523025209e-05  2.3401749831715245e-05  2.3399339679443804e-05  2.3395752467171209e-05  2.3390907180156002e-05  2.3384784230478058e-05  2.3377435785009729e-05  2.3368991700215884e-05  2.3359659480972999e-05  2.3349717327124881e-05  2.3339500223309865e-05  2.3329380025479343e-05  2.3319741439525066e-05  2.3310956491427378e-05  2.3303360372636446e-05  2.3297231283513175e-05  2.3292776096967759e-05  2.3290122505996997e-05  2.3289317130728704e-05  2.3290328202183010e-05  2.3293051151246486e-05  2.3297315726927954e-05  2.3302893937259274e-05  2.3309508821003136e-05  2.3316844526539421e-05  2.3324558256864085e-05  2.3332294376780218e-05  2.3339700528064523e-05  2.3346445135780608e-05  2.3352235325932124e-05  2.3356834036078507e-05  2.3360074955311838e-05  2.3361873848216059e-05  2.3362234815319418e-05  2.3361250189896976e-05  2.3359093158478494e-05  2.3356002876837519e-05  2.3352262807263689e-05  2.3348174092601135e-05  2.3344026784111244e-05  2.3340072395261061e-05  2.3336501348552068e-05  2.3333428327096307e-05  2.3330887414332585e-05  2.3328837436760251e-05  2.3327176432868443e-05  2.3325762956716821e-05  2.3324441182254726e-05  2.3323066555551140e-05  2.3321528970885438e-05  2.3319770976225077e-05  2.3317799190064049e-05  2.3315687822725245e-05  2.3313573893365740e-05  2.3311644430821370e-05  2.3310116682279079e-05  2.3309213148328099e-05  2.3309134067708182e-05  2.3310030652684715e-05  2.3311982725606523e-05  2.3314984232508815e-05  2.3318939302369107e-05  2.3323670122895542e-05  2.3328936120653360e-05  2.3334462089736172e-05  2.3339971370704960e-05  2.3345219246859933e-05  2.3350021579866283e-05  2.3354274378137120e-05  2.3357961361171612e-05  2.3361148424724909e-05  2.3363965934895278e-05  2.3366581672049583e-05  2.3369168713786163e-05  2.3371873353082640e-05  2.3374788152748429e-05  2.3377934424754688e-05  2.3381256911493414e-05  2.3384631472817604e-05  2.3387884467519018e-05  2.3390820612194873e-05  2.3393254729306036e-05  2.3395042199316523e-05  2.3396103213499749e-05  2.3396437025277004e-05  2.3396124102130378e-05  2.3395316057600558e-05  2.3394215127752665e-05  2.3393046434285888e-05  2.3392027155371687e-05  2.3391336974296421e-05  2.3391093941539857e-05  2.3397030282903568e-05  2.3397192583558675e-05  2.3397686935091004e-05  2.3398448363702345e-05  2.3399372942109819e-05  2.3400324189423227e-05  2.3401140654394119e-05  2.3401644221086021e-05  2.3401648948653805e-05  2.3400970566581592e-05  2.3399436899770896e-05  2.3396899376696060e-05  2.3393245387229614e-05  2.3388410725635028e-05  2.3382390856332171e-05  2.3375249440528209e-05  2.3367122559812978e-05  2.3358217383784265e-05  2.3348804602338353e-05  2.3339204695967409e-05  2.3329768952944636e-05  2.3320856947174900e-05  2.3312812820112323e-05  2.3305942997112516e-05  2.3300497774481191e-05  2.3296658509091113e-05  2.3294531067301786e-05  2.3294145038939735e-05  2.3295457344655463e-05  2.3298358518418467e-05  2.3302680182426497e-05  2.3308202877378252e-05  2.3314664161185207e-05  2.3321767447507110e-05  2.3329192254034432e-05  2.3336606368771951e-05  2.3343680043490680e-05  2.3350101846098410e-05  2.3355595367754397e-05  2.3359935637701472e-05  2.3362963852160931e-05  2.3364598872109176e-05  2.3364843918596018e-05  2.3363787059552365e-05  2.3361594511403437e-05  2.3358496504703463e-05  2.3354766437561885e-05  2.3350695121613375e-05  2.3346562896405262e-05  2.3342613010211746e-05  2.3339029745781191e-05  2.3335924228710270e-05  2.3333329765884153e-05  2.3331207135812270e-05  2.3329458788553528e-05  2.3327949701090049e-05  2.3326531876922171e-05  2.3325069246065832e-05  2.3323459955993191e-05  2.3321653604739693e-05  2.3319661690608527e-05  2.3317560305466494e-05  2.3315484811459098e-05  2.3313616914239947e-05  2.3312165222809111e-05  2.3311341102165438e-05  2.3311332352397018e-05  2.3312277866407597e-05  2.3314246735686675e-05  2.3317225092471159e-05  2.3321113183880904e-05  2.3325733806467160e-05  2.3330851491479399e-05  2.3336200047250996e-05  2.3341514596513441e-05  2.3346563395149469e-05  2.3351174656010351e-05  2.3355254337659084e-05  2.3358792256638913e-05  2.3361855700608629e-05  2.3364571661076998e-05  2.3367100563945861e-05  2.3369605682725016e-05  2.3372223071372713e-05  2.3375036748028603e-05  2.3378063010589726e-05  2.3381246300120414e-05  2.3384467177080009e-05  2.3387561032129809e-05  2.3390344433335614e-05  2.3392644802234619e-05  2.3394328620312264e-05  2.3395323679148421e-05  2.3395631938045748e-05  2.3395331137579636e-05  2.3394565133336110e-05  2.3393524630971469e-05  2.3392421342701945e-05  2.3391459378899575e-05  2.3390807901963548e-05  2.3390578773479455e-05  2.3395814037515166e-05  2.3395947187162500e-05  2.3396356865218787e-05  2.3396982927546648e-05  2.3397728556033685e-05  2.3398466269744984e-05  2.3399045279254661e-05  2.3399299731836411e-05  2.3399057648972395e-05  2.3398150587127866e-05  2.3396424120912717e-05  2.3393749085754408e-05  2.3390033163009897e-05  2.3385231968263571e-05  2.3379358465755781e-05  2.3372489395947554e-05  2.3364767514164181e-05  2.3356398771059574e-05  2.3347644058914066e-05  2.3338805740877528e-05  2.3330209825109133e-05  2.3322185285164539e-05  2.3315042562510475e-05  2.3309053568957196e-05  2.3304435386276615e-05  2.3301339270748379e-05  2.3299845602379095e-05  2.3299964325424257e-05  2.3301639540748850e-05  2.3304756503260801e-05  2.3309149439980898e-05  2.3314609211042555e-05  2.3320890613113427e-05  2.3327719777877104e-05  2.3334802450012055e-05  2.3341833891701380e-05  2.3348510831756694e-05  2.3354545391378303e-05  2.3359680399624193e-05  2.3363705041304632e-05  2.3366469403861114e-05  2.3367896245388602e-05  2.3367988245251151e-05  2.3366829186639614e-05  2.3364578008341716e-05  2.3361455451791928e-05  2.3357724042313779e-05  2.3353663223611299e-05  2.3349542401381337e-05  2.3345595228672047e-05  2.3341998516849807e-05  2.3338858619340052e-05  2.3336207080511547e-05  2.3334005963865419e-05  2.3332161844482480e-05  2.3330546247094123e-05  2.3329019540118641e-05  2.3327455046996566e-05  2.3325760373574872e-05  2.3323893543692502e-05  2.3321872312559492e-05  2.3319775833383257e-05  2.3317738592557107e-05  2.3315937186531322e-05  2.3314571132131830e-05  2.3313839531408227e-05  2.3313916046467947e-05  2.3314925179794149e-05  2.3316923121446076e-05  2.3319886222714464e-05  2.3323709370136403e-05  2.3328215197845381e-05  2.3333173391579291e-05  2.3338327628995794e-05  2.3343426327018945e-05  2.3348252622142112e-05  2.3352649050444117e-05  2.3356533210710019e-05  2.3359902127444047e-05  2.3362824820188222e-05  2.3365424427443936e-05  2.3367852833319947e-05  2.3370261860078954e-05  2.3372775559304260e-05  2.3375467898511195e-05  2.3378349244893298e-05  2.3381363636761963e-05  2.3384397124737217e-05  2.3387295722737241e-05  2.3389890006707522e-05  2.3392022379691622e-05  2.3393572655420968e-05  2.3394477959563939e-05  2.3394743939015168e-05  2.3394445714753446e-05  2.3393718641303019e-05  2.3392740456374050e-05  2.3391707578002033e-05  2.3390808990936684e-05  2.3390201325385817e-05  2.3389988415763383e-05  2.3394026580808342e-05  2.3394129449955604e-05  2.3394447666202173e-05  2.3394926170664162e-05  2.3395476006527149e-05  2.3395979938726520e-05  2.3396299529519041e-05  2.3396283263477803e-05  2.3395775509447836e-05  2.3394626251203093e-05  2.3392701506309079e-05  2.3389894154246246e-05  2.3386134576252034e-05  2.3381400199501344e-05  2.3375722865551246e-05  2.3369192977245812e-05  2.3361959608576671e-05  2.3354226119726412e-05  2.3346241229238458e-05  2.3338285917840872e-05  2.3330656975413391e-05  2.3323648456962477e-05  2.3317532736383908e-05  2.3312543115319787e-05  2.3308859900641480e-05  2.3306601404032846e-05  2.3305820478258815e-05  2.3306506191499835e-05  2.3308589360618408e-05  2.3311950197559877e-05  2.3316426401274202e-05  2.3321820578189134e-05  2.3327906664262323e-05  2.3334435765788390e-05  2.3341142310155111e-05  2.3347751502326712e-05  2.3353988842013360e-05  2.3359591971102235e-05  2.3364324514329771e-05  2.3367990960514925e-05  2.3370451101442114e-05  2.3371632186226237e-05  2.3371536842575762e-05  2.3370245030492422e-05  2.3367908857079682e-05  2.3364739956095016e-05  2.3360990208419692e-05  2.3356927671192808e-05  2.3352810485561724e-05  2.3348862052974608e-05  2.3345250774927575e-05  2.3342077102889582e-05  2.3339369616879371e-05  2.3337090519589329e-05  2.3335149543448306e-05  2.3333424078305850e-05  2.3331782545019067e-05  2.3330107773295552e-05  2.3328317379314972e-05  2.3326378763650611e-05  2.3324317186074913e-05  2.3322216243721905e-05  2.3320210860772582e-05  2.3318473554467920e-05  2.3317195311115968e-05  2.3316562947258879e-05  2.3316735360961070e-05  2.3317821520213311e-05  2.3319863227815673e-05  2.3322825460396002e-05  2.3326596289154995e-05  2.3330997083368658e-05  2.3335802073920687e-05  2.3340764735337376e-05  2.3345647184481954e-05  2.3350248175603533e-05  2.3354425433068504e-05  2.3358108971050671e-05  2.3361303519854888e-05  2.3364079932217805e-05  2.3366557170777350e-05  2.3368877899093933e-05  2.3371181602670354e-05  2.3373579437540329e-05  2.3376134628464136e-05  2.3378851297482094e-05  2.3381673253146404e-05  2.3384492718442586e-05  2.3387167452369728e-05  2.3389543454014523e-05  2.3391479623184590e-05  2.3392870517490255e-05  2.3393663727358357e-05  2.3393869314068380e-05  2.3393560048144759e-05  2.3392862609651673e-05  2.3391941222936925e-05  2.3390976197804868e-05  2.3390140421777092e-05  2.3389576967836855e-05  2.3389380689732829e-05  2.3391552464805251e-05  2.3391625743838317e-05  2.3391851268774875e-05  2.3392179067684646e-05  2.3392528310214528e-05  2.3392792624521023e-05  2.3392846933069465e-05  2.3392555448837450e-05  2.3391780600025530e-05  2.3390392714723708e-05  2.3388280215349195e-05  2.3385359847727900e-05  2.3381586191098237e-05  2.3376959495837988e-05  2.3371530881908831e-05  2.3365404128582335e-05  2.3358733630985462e-05  2.3351718479923031e-05  2.3344592947115462e-05  2.3337613907946811e-05  2.3331045956938952e-05  2.3325145230693602e-05  2.3320143253312011e-05  2.3316232366700224e-05  2.3313554341172288e-05  2.3312193441251891e-05  2.3312174530290027e-05  2.3313465885538239e-05  2.3315985536862154e-05  2.3319609421548986e-05  2.3324179633917877e-05  2.3329511525913264e-05  2.3335399199170905e-05  2.3341619752664951e-05  2.3347937266523950e-05  2.3354107760198477e-05  2.3359886226028013e-05  2.3365036366190584e-05  2.3369342967918025e-05  2.3372626079888656e-05  2.3374755449287951e-05  2.3375663185579114e-05  2.3375352453601636e-05  2.3373900240815346e-05  2.3371452896836018e-05  2.3368214127671398e-05  2.3364426282717186e-05  2.3360346891494506e-05  2.3356223278201454e-05  2.3352268536015035e-05  2.3348642083779467e-05  2.3345437448164600e-05  2.3342678897699310e-05  2.3340327263824747e-05  2.3338293936147299e-05  2.3336460849188131e-05  2.3334703489188514e-05  2.3332913665631474e-05  2.3331019026213050e-05  2.3328996947364483e-05  2.3326881328037934e-05  2.3324761756545618e-05  2.3322775358950982e-05  2.3321092311326070e-05  2.3319896532525022e-05  2.3319363533828818e-05  2.3319637820482995e-05  2.3320812566228164e-05  2.3322914376802066e-05  2.3325895654220082e-05  2.3329636264317606e-05  2.3333954928844544e-05  2.3338629206854881e-05  2.3343421414687797e-05  2.3348106703605435e-05  2.3352499037552732e-05  2.3356471107414806e-05  2.3359965222852777e-05  2.3362993728963711e-05  2.3365629205700841e-05  2.3367986311316391e-05  2.3370198362796612e-05  2.3372392431004609e-05  2.3374666796880162e-05  2.3377074100391635e-05  2.3379612530711602e-05  2.3382226122818258e-05  2.3384813836724975e-05  2.3387245797741584e-05  2.3389384050058729e-05  2.3391104566431353e-05  2.3392317151610183e-05  2.3392980286906678e-05  2.3393108811340314e-05  2.3392773467488685e-05  2.3392092558079171e-05  2.3391217062748703e-05  2.3390311396297428e-05  2.3389532461723546e-05  2.3389009744823993e-05  2.3388828946607466e-05  2.3388303066213601e-05  2.3388349355324546e-05  2.3388487062869566e-05  2.3388670928169708e-05  2.3388827900753778e-05  2.3388862306360828e-05  2.3388662560473967e-05  2.3388109091332542e-05  2.3387083202927144e-05  2.3385476607183106e-05  2.3383201223611815e-05  2.3380198610018060e-05  2.3376448156240252e-05  2.3371973078530141e-05  2.3366843382291745e-05  2.3361175303332183e-05  2.3355127182499547e-05  2.3348892125700574e-05  2.3342688043935101e-05  2.3336745750524554e-05  2.3331295806261326e-05  2.3326554867624859e