<?xml version="1.0"?>
<VTKFile type="UnstructuredGrid"  version="0.1"  >
<UnstructuredGrid>
<Piece  NumberOfPoints="10201" NumberOfCells="20000">
<Points>
<DataArray  type="Float64"  NumberOfComponents="3"  format="ascii">0 0 0  0.25 0 0  0.5 0 0  0.75 0 0  1 0 0  1.25 0 0  1.5 0 0  1.75 0 0  2 0 0  2.25 0 0  2.5 0 0  2.75 0 0  3 0 0  3.25 0 0  3.5 0 0  3.75 0 0  4 0 0  4.25 0 0  4.5 0 0  4.75 0 0  5 0 0  5.25 0 0  5.5 0 0  5.75 0 0  6 0 0  6.25 0 0  6.5 0 0  6.75 0 0  7 0 0  7.25 0 0  7.5 0 0  7.75 0 0  8 0 0  8.25 0 0  8.5 0 0  8.75 0 0  9 0 0  9.25 0 0  9.5 0 0  9.75 0 0  10 0 0  10.25 0 0  10.5 0 0  10.75 0 0  11 0 0  11.25 0 0  11.5 0 0  11.75 0 0  12 0 0  12.25 0 0  12.5 0 0  12.75 0 0  13 0 0  13.25 0 0  13.5 0 0  13.75 0 0  14 0 0  14.25 0 0  14.5 0 0  14.75 0 0  15 0 0  15.25 0 0  15.5 0 0  15.75 0 0  16 0 0  16.25 0 0  16.5 0 0  16.75 0 0  17 0 0  17.25 0 0  17.5 0 0  17.75 0 0  18 0 0  18.25 0 0  18.5 0 0  18.75 0 0  19 0 0  19.25 0 0  19.5 0 0  19.75 0 0  20 0 0  20.25 0 0  20.5 0 0  20.75 0 0  21 0 0  21.25 0 0  21.5 0 0  21.75 0 0  22 0 0  22.25 0 0  22.5 0 0  22.75 0 0  23 0 0  23.25 0 0  23.5 0 0  23.75 0 0  24 0 0  24.25 0 0  24.5 0 0  24.75 0 0  25 0 0  0 0.25 0  0.25 0.25 0  0.5 0.25 0  0.75 0.25 0  1 0.25 0  1.25 0.25 0  1.5 0.25 0  1.75 0.25 0  2 0.25 0  2.25 0.25 0  2.5 0.25 0  2.75 0.25 0  3 0.25 0  3.25 0.25 0  3.5 0.25 0  3.75 0.25 0  4 0.25 0  4.25 0.25 0  4.5 0.25 0  4.75 0.25 0  5 0.25 0  5.25 0.25 0  5.5 0.25 0  5.75 0.25 0  6 0.25 0  6.25 0.25 0  6.5 0.25 0  6.75 0.25 0  7 0.25 0  7.25 0.25 0  7.5 0.25 0  7.75 0.25 0  8 0.25 0  8.25 0.25 0  8.5 0.25 0  8.75 0.25 0  9 0.25 0  9.25 0.25 0  9.5 0.25 0  9.75 0.25 0  10 0.25 0  10.25 0.25 0  10.5 0.25 0  10.75 0.25 0  11 0.25 0  11.25 0.25 0  11.5 0.25 0  11.75 0.25 0  12 0.25 0  12.25 0.25 0  12.5 0.25 0  12.75 0.25 0  13 0.25 0  13.25 0.25 0  13.5 0.25 0  13.75 0.25 0  14 0.25 0  14.25 0.25 0  14.5 0.25 0  14.75 0.25 0  15 0.25 0  15.25 0.25 0  15.5 0.25 0  15.75 0.25 0  16 0.25 0  16.25 0.25 0  16.5 0.25 0  16.75 0.25 0  17 0.25 0  17.25 0.25 0  17.5 0.25 0  17.75 0.25 0  18 0.25 0  18.25 0.25 0  18.5 0.25 0  18.75 0.25 0  19 0.25 0  19.25 0.25 0  19.5 0.25 0  19.75 0.25 0  20 0.25 0  20.25 0.25 0  20.5 0.25 0  20.75 0.25 0  21 0.25 0  21.25 0.25 0  21.5 0.25 0  21.75 0.25 0  22 0.25 0  22.25 0.25 0  22.5 0.25 0  22.75 0.25 0  23 0.25 0  23.25 0.25 0  23.5 0.25 0  23.75 0.25 0  24 0.25 0  24.25 0.25 0  24.5 0.25 0  24.75 0.25 0  25 0.25 0  0 0.5 0  0.25 0.5 0  0.5 0.5 0  0.75 0.5 0  1 0.5 0  1.25 0.5 0  1.5 0.5 0  1.75 0.5 0  2 0.5 0  2.25 0.5 0  2.5 0.5 0  2.75 0.5 0  3 0.5 0  3.25 0.5 0  3.5 0.5 0  3.75 0.5 0  4 0.5 0  4.25 0.5 0  4.5 0.5 0  4.75 0.5 0  5 0.5 0  5.25 0.5 0  5.5 0.5 0  5.75 0.5 0  6 0.5 0  6.25 0.5 0  6.5 0.5 0  6.75 0.5 0  7 0.5 0  7.25 0.5 0  7.5 0.5 0  7.75 0.5 0  8 0.5 0  8.25 0.5 0  8.5 0.5 0  8.75 0.5 0  9 0.5 0  9.25 0.5 0  9.5 0.5 0  9.75 0.5 0  10 0.5 0  10.25 0.5 0  10.5 0.5 0  10.75 0.5 0  11 0.5 0  11.25 0.5 0  11.5 0.5 0  11.75 0.5 0  12 0.5 0  12.25 0.5 0  12.5 0.5 0  12.75 0.5 0  13 0.5 0  13.25 0.5 0  13.5 0.5 0  13.75 0.5 0  14 0.5 0  14.25 0.5 0  14.5 0.5 0  14.75 0.5 0  15 0.5 0  15.25 0.5 0  15.5 0.5 0  15.75 0.5 0  16 0.5 0  16.25 0.5 0  16.5 0.5 0  16.75 0.5 0  17 0.5 0  17.25 0.5 0  17.5 0.5 0  17.75 0.5 0  18 0.5 0  18.25 0.5 0  18.5 0.5 0  18.75 0.5 0  19 0.5 0  19.25 0.5 0  19.5 0.5 0  19.75 0.5 0  20 0.5 0  20.25 0.5 0  20.5 0.5 0  20.75 0.5 0  21 0.5 0  21.25 0.5 0  21.5 0.5 0  21.75 0.5 0  22 0.5 0  22.25 0.5 0  22.5 0.5 0  22.75 0.5 0  23 0.5 0  23.25 0.5 0  23.5 0.5 0  23.75 0.5 0  24 0.5 0  24.25 0.5 0  24.5 0.5 0  24.75 0.5 0  25 0.5 0  0 0.75 0  0.25 0.75 0  0.5 0.75 0  0.75 0.75 0  1 0.75 0  1.25 0.75 0  1.5 0.75 0  1.75 0.75 0  2 0.75 0  2.25 0.75 0  2.5 0.75 0  2.75 0.75 0  3 0.75 0  3.25 0.75 0  3.5 0.75 0  3.75 0.75 0  4 0.75 0  4.25 0.75 0  4.5 0.75 0  4.75 0.75 0  5 0.75 0  5.25 0.75 0  5.5 0.75 0  5.75 0.75 0  6 0.75 0  6.25 0.75 0  6.5 0.75 0  6.75 0.75 0  7 0.75 0  7.25 0.75 0  7.5 0.75 0  7.75 0.75 0  8 0.75 0  8.25 0.75 0  8.5 0.75 0  8.75 0.75 0  9 0.75 0  9.25 0.75 0  9.5 0.75 0  9.75 0.75 0  10 0.75 0  10.25 0.75 0  10.5 0.75 0  10.75 0.75 0  11 0.75 0  11.25 0.75 0  11.5 0.75 0  11.75 0.75 0  12 0.75 0  12.25 0.75 0  12.5 0.75 0  12.75 0.75 0  13 0.75 0  13.25 0.75 0  13.5 0.75 0  13.75 0.75 0  14 0.75 0  14.25 0.75 0  14.5 0.75 0  14.75 0.75 0  15 0.75 0  15.25 0.75 0  15.5 0.75 0  15.75 0.75 0  16 0.75 0  16.25 0.75 0  16.5 0.75 0  16.75 0.75 0  17 0.75 0  17.25 0.75 0  17.5 0.75 0  17.75 0.75 0  18 0.75 0  18.25 0.75 0  18.5 0.75 0  18.75 0.75 0  19 0.75 0  19.25 0.75 0  19.5 0.75 0  19.75 0.75 0  20 0.75 0  20.25 0.75 0  20.5 0.75 0  20.75 0.75 0  21 0.75 0  21.25 0.75 0  21.5 0.75 0  21.75 0.75 0  22 0.75 0  22.25 0.75 0  22.5 0.75 0  22.75 0.75 0  23 0.75 0  23.25 0.75 0  23.5 0.75 0  23.75 0.75 0  24 0.75 0  24.25 0.75 0  24.5 0.75 0  24.75 0.75 0  25 0.75 0  0 1 0  0.25 1 0  0.5 1 0  0.75 1 0  1 1 0  1.25 1 0  1.5 1 0  1.75 1 0  2 1 0  2.25 1 0  2.5 1 0  2.75 1 0  3 1 0  3.25 1 0  3.5 1 0  3.75 1 0  4 1 0  4.25 1 0  4.5 1 0  4.75 1 0  5 1 0  5.25 1 0  5.5 1 0  5.75 1 0  6 1 0  6.25 1 0  6.5 1 0  6.75 1 0  7 1 0  7.25 1 0  7.5 1 0  7.75 1 0  8 1 0  8.25 1 0  8.5 1 0  8.75 1 0  9 1 0  9.25 1 0  9.5 1 0  9.75 1 0  10 1 0  10.25 1 0  10.5 1 0  10.75 1 0  11 1 0  11.25 1 0  11.5 1 0  11.75 1 0  12 1 0  12.25 1 0  12.5 1 0  12.75 1 0  13 1 0  13.25 1 0  13.5 1 0  13.75 1 0  14 1 0  14.25 1 0  14.5 1 0  14.75 1 0  15 1 0  15.25 1 0  15.5 1 0  15.75 1 0  16 1 0  16.25 1 0  16.5 1 0  16.75 1 0  17 1 0  17.25 1 0  17.5 1 0  17.75 1 0  18 1 0  18.25 1 0  18.5 1 0  18.75 1 0  19 1 0  19.25 1 0  19.5 1 0  19.75 1 0  20 1 0  20.25 1 0  20.5 1 0  20.75 1 0  21 1 0  21.25 1 0  21.5 1 0  21.75 1 0  22 1 0  22.25 1 0  22.5 1 0  22.75 1 0  23 1 0  23.25 1 0  23.5 1 0  23.75 1 0  24 1 0  24.25 1 0  24.5 1 0  24.75 1 0  25 1 0  0 1.25 0  0.25 1.25 0  0.5 1.25 0  0.75 1.25 0  1 1.25 0  1.25 1.25 0  1.5 1.25 0  1.75 1.25 0  2 1.25 0  2.25 1.25 0  2.5 1.25 0  2.75 1.25 0  3 1.25 0  3.25 1.25 0  3.5 1.25 0  3.75 1.25 0  4 1.25 0  4.25 1.25 0  4.5 1.25 0  4.75 1.25 0  5 1.25 0  5.25 1.25 0  5.5 1.25 0  5.75 1.25 0  6 1.25 0  6.25 1.25 0  6.5 1.25 0  6.75 1.25 0  7 1.25 0  7.25 1.25 0  7.5 1.25 0  7.75 1.25 0  8 1.25 0  8.25 1.25 0  8.5 1.25 0  8.75 1.25 0  9 1.25 0  9.25 1.25 0  9.5 1.25 0  9.75 1.25 0  10 1.25 0  10.25 1.25 0  10.5 1.25 0  10.75 1.25 0  11 1.25 0  11.25 1.25 0  11.5 1.25 0  11.75 1.25 0  12 1.25 0  12.25 1.25 0  12.5 1.25 0  12.75 1.25 0  13 1.25 0  13.25 1.25 0  13.5 1.25 0  13.75 1.25 0  14 1.25 0  14.25 1.25 0  14.5 1.25 0  14.75 1.25 0  15 1.25 0  15.25 1.25 0  15.5 1.25 0  15.75 1.25 0  16 1.25 0  16.25 1.25 0  16.5 1.25 0  16.75 1.25 0  17 1.25 0  17.25 1.25 0  17.5 1.25 0  17.75 1.25 0  18 1.25 0  18.25 1.25 0  18.5 1.25 0  18.75 1.25 0  19 1.25 0  19.25 1.25 0  19.5 1.25 0  19.75 1.25 0  20 1.25 0  20.25 1.25 0  20.5 1.25 0  20.75 1.25 0  21 1.25 0  21.25 1.25 0  21.5 1.25 0  21.75 1.25 0  22 1.25 0  22.25 1.25 0  22.5 1.25 0  22.75 1.25 0  23 1.25 0  23.25 1.25 0  23.5 1.25 0  23.75 1.25 0  24 1.25 0  24.25 1.25 0  24.5 1.25 0  24.75 1.25 0  25 1.25 0  0 1.5 0  0.25 1.5 0  0.5 1.5 0  0.75 1.5 0  1 1.5 0  1.25 1.5 0  1.5 1.5 0  1.75 1.5 0  2 1.5 0  2.25 1.5 0  2.5 1.5 0  2.75 1.5 0  3 1.5 0  3.25 1.5 0  3.5 1.5 0  3.75 1.5 0  4 1.5 0  4.25 1.5 0  4.5 1.5 0  4.75 1.5 0  5 1.5 0  5.25 1.5 0  5.5 1.5 0  5.75 1.5 0  6 1.5 0  6.25 1.5 0  6.5 1.5 0  6.75 1.5 0  7 1.5 0  7.25 1.5 0  7.5 1.5 0  7.75 1.5 0  8 1.5 0  8.25 1.5 0  8.5 1.5 0  8.75 1.5 0  9 1.5 0  9.25 1.5 0  9.5 1.5 0  9.75 1.5 0  10 1.5 0  10.25 1.5 0  10.5 1.5 0  10.75 1.5 0  11 1.5 0  11.25 1.5 0  11.5 1.5 0  11.75 1.5 0  12 1.5 0  12.25 1.5 0  12.5 1.5 0  12.75 1.5 0  13 1.5 0  13.25 1.5 0  13.5 1.5 0  13.75 1.5 0  14 1.5 0  14.25 1.5 0  14.5 1.5 0  14.75 1.5 0  15 1.5 0  15.25 1.5 0  15.5 1.5 0  15.75 1.5 0  16 1.5 0  16.25 1.5 0  16.5 1.5 0  16.75 1.5 0  17 1.5 0  17.25 1.5 0  17.5 1.5 0  17.75 1.5 0  18 1.5 0  18.25 1.5 0  18.5 1.5 0  18.75 1.5 0  19 1.5 0  19.25 1.5 0  19.5 1.5 0  19.75 1.5 0  20 1.5 0  20.25 1.5 0  20.5 1.5 0  20.75 1.5 0  21 1.5 0  21.25 1.5 0  21.5 1.5 0  21.75 1.5 0  22 1.5 0  22.25 1.5 0  22.5 1.5 0  22.75 1.5 0  23 1.5 0  23.25 1.5 0  23.5 1.5 0  23.75 1.5 0  24 1.5 0  24.25 1.5 0  24.5 1.5 0  24.75 1.5 0  25 1.5 0  0 1.75 0  0.25 1.75 0  0.5 1.75 0  0.75 1.75 0  1 1.75 0  1.25 1.75 0  1.5 1.75 0  1.75 1.75 0  2 1.75 0  2.25 1.75 0  2.5 1.75 0  2.75 1.75 0  3 1.75 0  3.25 1.75 0  3.5 1.75 0  3.75 1.75 0  4 1.75 0  4.25 1.75 0  4.5 1.75 0  4.75 1.75 0  5 1.75 0  5.25 1.75 0  5.5 1.75 0  5.75 1.75 0  6 1.75 0  6.25 1.75 0  6.5 1.75 0  6.75 1.75 0  7 1.75 0  7.25 1.75 0  7.5 1.75 0  7.75 1.75 0  8 1.75 0  8.25 1.75 0  8.5 1.75 0  8.75 1.75 0  9 1.75 0  9.25 1.75 0  9.5 1.75 0  9.75 1.75 0  10 1.75 0  10.25 1.75 0  10.5 1.75 0  10.75 1.75 0  11 1.75 0  11.25 1.75 0  11.5 1.75 0  11.75 1.75 0  12 1.75 0  12.25 1.75 0  12.5 1.75 0  12.75 1.75 0  13 1.75 0  13.25 1.75 0  13.5 1.75 0  13.75 1.75 0  14 1.75 0  14.25 1.75 0  14.5 1.75 0  14.75 1.75 0  15 1.75 0  15.25 1.75 0  15.5 1.75 0  15.75 1.75 0  16 1.75 0  16.25 1.75 0  16.5 1.75 0  16.75 1.75 0  17 1.75 0  17.25 1.75 0  17.5 1.75 0  17.75 1.75 0  18 1.75 0  18.25 1.75 0  18.5 1.75 0  18.75 1.75 0  19 1.75 0  19.25 1.75 0  19.5 1.75 0  19.75 1.75 0  20 1.75 0  20.25 1.75 0  20.5 1.75 0  20.75 1.75 0  21 1.75 0  21.25 1.75 0  21.5 1.75 0  21.75 1.75 0  22 1.75 0  22.25 1.75 0  22.5 1.75 0  22.75 1.75 0  23 1.75 0  23.25 1.75 0  23.5 1.75 0  23.75 1.75 0  24 1.75 0  24.25 1.75 0  24.5 1.75 0  24.75 1.75 0  25 1.75 0  0 2 0  0.25 2 0  0.5 2 0  0.75 2 0  1 2 0  1.25 2 0  1.5 2 0  1.75 2 0  2 2 0  2.25 2 0  2.5 2 0  2.75 2 0  3 2 0  3.25 2 0  3.5 2 0  3.75 2 0  4 2 0  4.25 2 0  4.5 2 0  4.75 2 0  5 2 0  5.25 2 0  5.5 2 0  5.75 2 0  6 2 0  6.25 2 0  6.5 2 0  6.75 2 0  7 2 0  7.25 2 0  7.5 2 0  7.75 2 0  8 2 0  8.25 2 0  8.5 2 0  8.75 2 0  9 2 0  9.25 2 0  9.5 2 0  9.75 2 0  10 2 0  10.25 2 0  10.5 2 0  10.75 2 0  11 2 0  11.25 2 0 
[...]
<PointData  Scalars="f_26"> 
<DataArray  type="Float64"  Name="f_26"  format="ascii">2.3540931555853393e-05  2.3547420868057747e-05  2.3562537230804560e-05  2.3585984900575086e-05  2.3616637826129588e-05  2.3652962803176269e-05  2.3693246202277998e-05  2.3735766630124609e-05  2.3778931402930593e-05  2.3821373268716803e-05  2.3862005158856520e-05  2.3900036265712636e-05  2.3934957289386122e-05  2.3966504869651139e-05  2.3994615099936864e-05  2.4019374332215912e-05  2.4040973086231148e-05  2.4059666473646380e-05  2.4075742560840507e-05  2.4089498686142856e-05  2.4101224900030929e-05  2.4111193298275349e-05  2.4119651929967008e-05  2.4126822059761804e-05  2.4132897751255140e-05  2.4138046952553097e-05  2.4142413468682669e-05  2.4146119380396901e-05  2.4149267609335159e-05  2.4151944436498235e-05  2.4154221859034324e-05  2.4156159724953391e-05  2.4157807622020512e-05  2.4159206520448610e-05  2.4160390182951615e-05  2.4161386363191015e-05  2.4162217816850755e-05  2.4162903150088387e-05  2.4163457529036144e-05  2.4163893272108794e-05  2.4164220344600490e-05  2.4164446772721752e-05  2.4164578992014124e-05  2.4164622143071352e-05  2.4164580325722170e-05  2.4164456821282883e-05  2.4164254291135272e-05  2.4163974958679344e-05  2.4163620780593240e-05  2.4163193612242696e-05  2.4162695370957291e-05  2.4162128199672547e-05  2.4161494632077587e-05  2.4160797758876752e-05  2.4160041393064163e-05  2.4159230230251124e-05  2.4158369998147895e-05  2.4157467587404037e-05  2.4156531154325655e-05  2.4155570184731222e-05  2.4154595507628835e-05  2.4153619247752818e-05  2.4152654707511439e-05  2.4151716171720634e-05  2.4150818632657103e-05  2.4149977438318244e-05  2.4149207872992696e-05  2.4148524685797593e-05  2.4147941589042800e-05  2.4147470753368552e-05  2.4147122329819551e-05  2.4146904029754362e-05  2.4146820791388397e-05  2.4146874556820110e-05  2.4147064175960933e-05  2.4147385444597597e-05  2.4147831273837188e-05  2.4148391978512870e-05  2.4149055663806767e-05  2.4149808683220023e-05  2.4150636137615370e-05  2.4151522384529987e-05  2.4152451529097916e-05  2.4153407872228062e-05  2.4154376297461327e-05  2.4155342584413727e-05  2.4156293643177662e-05  2.4157217669903944e-05  2.4158104228602933e-05  2.4158944267756127e-05  2.4159730082566119e-05  2.4160455234673196e-05  2.4161114441089442e-05  2.4161703443104582e-05  2.4162218864029249e-05  2.4162658061421778e-05  2.4163018972837802e-05  2.4163299935884064e-05  2.4163499398853189e-05  2.4163615172636947e-05  2.4163641673991342e-05  2.3547114444922865e-05  2.3552342967877200e-05  2.3566978809825869e-05  2.3590081565351329e-05  2.3620393416879021e-05  2.3656362000954896e-05  2.3696280317176387e-05  2.3738438567713103e-05  2.3781254904181775e-05  2.3823370454241592e-05  2.3863703736635106e-05  2.3901466962066190e-05  2.3936151735571586e-05  2.3967494007271335e-05  2.3995428077124380e-05  2.4020037818872549e-05  2.4041510922144628e-05  2.4060099565280811e-05  2.4076088952601254e-05  2.4089773744938484e-05  2.4101441565259277e-05  2.4111362361563891e-05  2.4119782319468427e-05  2.4126921112335541e-05  2.4132971462492476e-05  2.4138100199510854e-05  2.4142450203639431e-05  2.4146142796222254e-05  2.4149280278443299e-05  2.4151948426086659e-05  2.4154218825587817e-05  2.4156150990980600e-05  2.4157794237801628e-05  2.4159189313290877e-05  2.4160369796130175e-05  2.4161363286431477e-05  2.4162192409908098e-05  2.4162875660705720e-05  2.4163428106331424e-05  2.4163861976239212e-05  2.4164187153391771e-05  2.4164411585821378e-05  2.4164541633031246e-05  2.4164582360099804e-05  2.4164537790604890e-05  2.4164411127964366e-05  2.4164204953462145e-05  2.4163921408045547e-05  2.4163562363883412e-05  2.4163129590600873e-05  2.4162624919992524e-05  2.4162050411799819e-05  2.4161408521770273e-05  2.4160702271660870e-05  2.4159935419096762e-05  2.4159112623274707e-05  2.4158239600478362e-05  2.4157323261371511e-05  2.4156371820231424e-05  2.4155394864905647e-05  2.4154403375584978e-05  2.4153409680758475e-05  2.4152427340199863e-05  2.4151470947700498e-05  2.4150555850555584e-05  2.4149697788394807e-05  2.4148912460486803e-05  2.4148215037588948e-05  2.4147619641034651e-05  2.4147138817225497e-05  2.4146783039212693e-05  2.4146560267942882e-05  2.4146475603611784e-05  2.4146531052388342e-05  2.4146725425926925e-05  2.4147054381342299e-05  2.4147510598729826e-05  2.4148084083048863e-05  2.4148762568375450e-05  2.4149531996077181e-05  2.4150377034929086e-05  2.4151281610730350e-05  2.4152229415361442e-05  2.4153204369885558e-05  2.4154191022492508e-05  2.4155174868982885e-05  2.4156142590323081e-05  2.4157082207937153e-05  2.4157983162405494e-05  2.4158836324885577e-05  2.4159633952817867e-05  2.4160369602436373e-05  2.4161038010463407e-05  2.4161634956357134e-05  2.4162157114793628e-05  2.4162601905831831e-05  2.4162967347651065e-05  2.4163251915590001e-05  2.4163454423560144e-05  2.4163574043503039e-05  2.4163611188488246e-05  2.3561363559253751e-05  2.3566113805543600e-05  2.3580099611180627e-05  2.3602422170320595e-05  2.3631825391899933e-05  2.3666782613132635e-05  2.3705627398534639e-05  2.3746693972819690e-05  2.3788440753412293e-05  2.3829541498751155e-05  2.3868938182353368e-05  2.3905857365201982e-05  2.3939796992126553e-05  2.3970492963250511e-05  2.3997874900230064e-05  2.4022019010070344e-05  2.4043103699499420e-05  2.4061371299101757e-05  2.4077097340123182e-05  2.4090567456659232e-05  2.4102061152448194e-05  2.4111841271675153e-05  2.4120147915929603e-05  2.4127195634651946e-05  2.4133172891772687e-05  2.4138243014727954e-05  2.4142546027040968e-05  2.4146200934121818e-05  2.4149308167745190e-05  2.4151951998557940e-05  2.4154202802022012e-05  2.4156119116644703e-05  2.4157749469359785e-05  2.4159133966032691e-05  2.4160305658968126e-05  2.4161291710863599e-05  2.4162114378014604e-05  2.4162791836277517e-05  2.4163338872413781e-05  2.4163767461705364e-05  2.4164087250626396e-05  2.4164305961179096e-05  2.4164429731428730e-05  2.4164463404891755e-05  2.4164410779775949e-05  2.4164274827634918e-05  2.4164057889750246e-05  2.4163761858444091e-05  2.4163388349493330e-05  2.4162938870796371e-05  2.4162414991365660e-05  2.4161818513514424e-05  2.4161151649714401e-05  2.4160417203977358e-05  2.4159618755736796e-05  2.4158760842094830e-05  2.4157849132018682e-05  2.4156890583747577e-05  2.4155893574496225e-05  2.4154867989772921e-05  2.4153825258578353e-05  2.4152778320750422e-05  2.4151741514087823e-05  2.4150730371861607e-05  2.4149761326009768e-05  2.4148851317599738e-05  2.4148017323681582e-05  2.4147275817819794e-05  2.4146642189531311e-05  2.4146130154574868e-05  2.4145751192524170e-05  2.4145514049463898e-05  2.4145424341443159e-05  2.4145484288429227e-05  2.4145692599361116e-05  2.4146044517427300e-05  2.4146532022164515e-05  2.4147144172839755e-05  2.4147867567216744e-05  2.4148686882324405e-05  2.4149585459904300e-05  2.4150545898974795e-05  2.4151550621083047e-05  2.4152582379607167e-05  2.4153624691973992e-05  2.4154662181860783e-05  2.4155680826425749e-05  2.4156668110630927e-05  2.4157613096300913e-05  2.4158506417481719e-05  2.4159340215932260e-05  2.4160108031376622e-05  2.4160804660759291e-05  2.4161425999530645e-05  2.4161968876349323e-05  2.4162430891071359e-05  2.4162810265598865e-05  2.4163105720978794e-05  2.4163316409947348e-05  2.4163441978286180e-05  2.4163482891389885e-05  2.3583498495512495e-05  2.3587904622269203e-05  2.3601108544701886e-05  2.3622308056377291e-05  2.3650317431442482e-05  2.3683683386874260e-05  2.3720817841387830e-05  2.3760131876993581e-05  2.3800152435815780e-05  2.3839608754948085e-05  2.3877483098151813e-05  2.3913027226822420e-05  2.3945750896541712e-05  2.3975391028201115e-05  2.4001870361347616e-05  2.4025253048345872e-05  2.4045702580818804e-05  2.4063445301590584e-05  2.4078740948932600e-05  2.4091860373336988e-05  2.4103069760237927e-05  2.4112620294311892e-05  2.4120742092143235e-05  2.4127641298155019e-05  2.4133499396543437e-05  2.4138473980061940e-05  2.4142700399267305e-05  2.4146293875221432e-05  2.4149351788100991e-05  2.4151955953865386e-05  2.4154174774586032e-05  2.4156065200000757e-05  2.4157674473127088e-05  2.4159041655608735e-05  2.4160198942387174e-05  2.4161172783022825e-05  2.4161984830593643e-05  2.4162652740064511e-05  2.4163190837400338e-05  2.4163610679206915e-05  2.4163921520800645e-05  2.4164130708631406e-05  2.4164244011089025e-05  2.4164265900006946e-05  2.4164199793672394e-05  2.4164048270857544e-05  2.4163813264270952e-05  2.4163496240843914e-05  2.4163098375349139e-05  2.4162620722926601e-05  2.4162064395083490e-05  2.4161430742560033e-05  2.4160721547032276e-05  2.4159939221892195e-05  2.4159087020263615e-05  2.4158169245979978e-05  2.4157191460522782e-05  2.4156160676027578e-05  2.4155085521624479e-05  2.4153976367899467e-05  2.4152845392531155e-05  2.4151706569617793e-05  2.4150575566306385e-05  2.4149469533442477e-05  2.4148406782287677e-05  2.4147406346858648e-05  2.4146487440752653e-05  2.4145668827700519e-05  2.4144968135449224e-05  2.4144401151608847e-05  2.4143981146430613e-05  2.4143718269913588e-05  2.4143619068377455e-05  2.4143686158503699e-05  2.4143918085359800e-05  2.4144309376279486e-05  2.4144850786386919e-05  2.4145529715972089e-05  2.4146330766712003e-05  2.4147236394360685e-05  2.4148227610863384e-05  2.4149284689044385e-05  2.4150387827565687e-05  2.4151517741737337e-05  2.4152656155671604e-05  2.4153786181853069e-05  2.4154892584237509e-05  2.4155961929580384e-05  2.4156982638273624e-05  2.4157944950334200e-05  2.4158840824433044e-05  2.4159663788286964e-05  2.4160408757795812e-05  2.4161071840488668e-05  2.4161650136673702e-05  2.4162141549753310e-05  2.4162544616220750e-05  2.4162858366863841e-05  2.4163082233965967e-05  2.4163216018575453e-05  2.4163259890395014e-05  2.3612557454789446e-05  2.3616619963312335e-05  2.3628908235958654e-05  2.3648707198513740e-05  2.3674928279418689e-05  2.3706224048738634e-05  2.3741115934714881e-05  2.3778120171987824e-05  2.3815856733673535e-05  2.3853130247192074e-05  2.3888978136771041e-05  2.3922687232079196e-05  2.3953784442818752e-05  2.3982009301937515e-05  2.4007276406987629e-05  2.4029634633471802e-05  2.4049228155410803e-05  2.4066262372603257e-05  2.4080976184908041e-05  2.4093620835334908e-05  2.4104444776035479e-05  2.4113683619047378e-05  2.4121554111240261e-05  2.4128251119274470e-05  2.4133946745249953e-05  2.4138790861364256e-05  2.4142912518187078e-05  2.4146421828209467e-05  2.4149412047097274e-05  2.4151961668995639e-05  2.4154136422066565e-05  2.4155991100310950e-05  2.4157571201929451e-05  2.4158914366903968e-05  2.4160051620380078e-05  2.4161008436363270e-05  2.4161805640151926e-05  2.4162460169240895e-05  2.4162985712153465e-05  2.4163393243495268e-05  2.4163691471937497e-05  2.4163887216128255e-05  2.4163985721880949e-05  2.4163990932495702e-05  2.4163905722775082e-05  2.4163732106200565e-05  2.4163471423813559e-05  2.4163124522545116e-05  2.4162691929995224e-05  2.4162174031893721e-05  2.4161571257586212e-05  2.4160884277777812e-05  2.4160114217329624e-05  2.4159262884041484e-05  2.4158333011994890e-05  2.4157328515141149e-05  2.4156254743436249e-05  2.4155118730074256e-05  2.4153929414499722e-05  2.4152697822263947e-05  2.4151437179936952e-05  2.4150162941806421e-05  2.4148892705636440e-05  2.4147645997916639e-05  2.4146443915214110e-05  2.4145308617528614e-05  2.4144262681572171e-05  2.4143328335742179e-05  2.4142526612807052e-05  2.4141876469152587e-05  2.4141393928873867e-05  2.4141091315250119e-05  2.4140976629963671e-05  2.4141053131430030e-05  2.4141319148433102e-05  2.4141768145553436e-05  2.4142389035053914e-05  2.4143166708731102e-05  2.4144082745416972e-05  2.4145116237413907e-05  2.4146244673350796e-05  2.4147444815906440e-05  2.4148693519743820e-05  2.4149968446302934e-05  2.4151248645903119e-05  2.4152514991978317e-05  2.4153750465553366e-05  2.4154940299069472e-05  2.4156071996720963e-05  2.4157135253414103e-05  2.4158121796548444e-05  2.4159025174566730e-05  2.4159840514274192e-05  2.4160564265973382e-05  2.4161193952132341e-05  2.4161727932145464e-05  2.4162165193139377e-05  2.4162505174671229e-05  2.4162747632180885e-05  2.4162892535216518e-05  2.4162939970944840e-05  2.3647195882232532e-05  2.3650895080469526e-05  2.3662156641718895e-05  2.3680346167400558e-05  2.3704483854539451e-05  2.3733347754625339e-05  2.3765590576378234e-05  2.3799854788778127e-05  2.3834872251058510e-05  2.3869538688355270e-05  2.3902958776887757e-05  2.3934462826151564e-05  2.3963599901682391e-05  2.3990114241586893e-05  2.4013912104929137e-05  2.4035025241373041e-05  2.4053575588718999e-05  2.4069744102147221e-05  2.4083745133477066e-05  2.4095806667135875e-05  2.4106156002058560e-05  2.4115010086761699e-05  2.4122569579180526e-05  2.4129015725250189e-05  2.4134509258805366e-05  2.4139190669095039e-05  2.4143181328934302e-05  2.4146585108726493e-05  2.4149490211773167e-05  2.4151971053066708e-05  2.4154090069057887e-05  2.4155899393080331e-05  2.4157442363899390e-05  2.4158754856680003e-05  2.4159866439466269e-05  2.4160801366382895e-05  2.4161579423008716e-05  2.4162216641072032e-05  2.4162725899738868e-05  2.4163117429981302e-05  2.4163399237278899e-05  2.4163577456520839e-05  2.4163656651623507e-05  2.4163640071163120e-05  2.4163529870293661e-05  2.4163327308384005e-05  2.4163032931141384e-05  2.4162646745442442e-05  2.4162168394596492e-05  2.4161597341225821e-05  2.4160933064251306e-05  2.4160175275487543e-05  2.4159324159936751e-05  2.4158380641880633e-05  2.4157346676176768e-05  2.4156225560686679e-05  2.4155022261489291e-05  2.4153743737576724e-05  2.4152399246358825e-05  2.4151000605980167e-05  2.4149562385845279e-05  2.4148101993704003e-05  2.4146639627130628e-05  2.4145198060179924e-05  2.4143802243161912e-05  2.4142478705162902e-05  2.4141254764836585e-05  2.4140157573989453e-05  2.4139213038667721e-05  2.4138444681227752e-05  2.4137872521319253e-05  2.4137512061081345e-05  2.4137373458133893e-05  2.4137460958370835e-05  2.4137772639905099e-05  2.4138300492097037e-05  2.4139030822945413e-05  2.4139944958346971e-05  2.4141020171787012e-05  2.4142230765981790e-05  2.4143549220543291e-05  2.4144947321992560e-05  2.4146397203083784e-05  2.4147872235053008e-05  2.4149347736207439e-05  2.4150801480401728e-05  2.4152214007062297e-05  2.4153568748914959e-05  2.4154852003653697e-05  2.4156052781405962e-05  2.4157162561506312e-05  2.4158174990633815e-05  2.4159085550783692e-05  2.4159891220787484e-05  2.4160590149983758e-05  2.4161181357769427e-05  2.4161664468428648e-05  2.4162039486696150e-05  2.4162306615122462e-05  2.4162466107893578e-05  2.4162518146962724e-05  2.3685886215008117e-05  2.3689208702096776e-05  2.3699371080991457e-05  2.3715817042343866e-05  2.3737680469653826e-05  2.3763875066934654e-05  2.3793197459283293e-05  2.3824429480585767e-05  2.3856427241227985e-05  2.3888188371061292e-05  2.3918893590253513e-05  2.3947923279865708e-05  2.3974853091034799e-05  2.3999434441849755e-05  2.4021566087671739e-05  2.4041262210738794e-05  2.4058621157790245e-05  2.4073797498960006e-05  2.4086978784398623e-05  2.4098367383272738e-05  2.4108167131816606e-05  2.4116574150929712e-05  2.4123771047323190e-05  2.4129923710859164e-05  2.4135180001958548e-05  2.4139669741073646e-05  2.4143505537578439e-05  2.4146784111151631e-05  2.4149587856953076e-05  2.4151986484467792e-05  2.4154038619871925e-05  2.4155793305741456e-05  2.4157291362933074e-05  2.4158566600469218e-05  2.4159646872828571e-05  2.4160554992281718e-05  2.4161309508459262e-05  2.4161925369431924e-05  2.4162414479120371e-05  2.4162786165476797e-05  2.4163047573032565e-05  2.4163203992380793e-05  2.4163259138148377e-05  2.4163215386120274e-05  2.4163073979466181e-05  2.4162835213501777e-05  2.4162498608075038e-05  2.4162063076456293e-05  2.4161527099452594e-05  2.4160888913257661e-05  2.4160146719150361e-05  2.4159298922399773e-05  2.4158344406426645e-05  2.4157282846197574e-05  2.4156115061781531e-05  2.4154843408808277e-05  2.4153472197151115e-05  2.4152008122574006e-05  2.4150460688610945e-05  2.4148842588136049e-05  2.4147170006805221e-05  2.4145462804985619e-05  2.4143744532353669e-05  2.4142042231517901e-05  2.4140385995095918e-05  2.4138808255395980e-05  2.4137342807085696e-05  2.4136023589659652e-05  2.4134883285546873e-05  2.4133951817602197e-05  2.4133254852124858e-05  2.4132812426161832e-05  2.4132637817396319e-05  2.4132736759934527e-05  2.4133107080689609e-05  2.4133738792138188e-05  2.4134614633230562e-05  2.4135711007372643e-05  2.4136999230643274e-05  2.4138446979386428e-05  2.4140019816495134e-05  2.4141682680117408e-05  2.4143401235003527e-05  2.4145143011581757e-05  2.4146878286726474e-05  2.4148580688873949e-05  2.4150227535279481e-05  2.4151799928616340e-05  2.4153282652868505e-05  2.4154663914728301e-05  2.4155934977420242e-05  2.4157089730409412e-05  2.4158124232311949e-05  2.4159036256882310e-05  2.4159824864315080e-05  2.4160490013031896e-05  2.4161032221018176e-05  2.4161452280651026e-05  2.4161751026550389e-05  2.4161929152121878e-05  2.4161987068301343e-05  2.3727066901911055e-05  2.3730011152160102e-05  2.3739045198617063e-05  2.3753688532344947e-05  2.3773188915232586e-05  2.3796598463697816e-05  2.3822862274547977e-05  2.3850907095001391e-05  2.3879719197802112e-05  2.3908403913432725e-05  2.3936223320654465e-05  2.3962612437255754e-05  2.3987177147244118e-05  2.4009678710854838e-05  2.4030010082046152e-05  2.4048168716097992e-05  2.4064229492112453e-05  2.4078320166675421e-05  2.4090600671187399e-05  2.4101246700079475e-05  2.4110437445602810e-05  2.4118346990280640e-05  2.4125138714826742e-05  2.4130962056547546e-05  2.4135951008064977e-05  2.4140223838729947e-05  2.4143883624563489e-05  2.4147019271039633e-05  2.4149706798497929e-05  2.4152010729623639e-05  2.4153985472497931e-05  2.4155676632996969e-05  2.4157122219204395e-05  2.4158353720434512e-05  2.4159397056637816e-05  2.4160273402212276e-05  2.4160999893034675e-05  2.4161590227976138e-05  2.4162055177106601e-05  2.4162403008826021e-05  2.4162639847708725e-05  2.4162769974201290e-05  2.4162796076665624e-05  2.4162719465726552e-05  2.4162540260534664e-05  2.4162257556415343e-05  2.4161869583435090e-05  2.4161373865633457e-05  2.4160767390965398e-05  2.4160046802255691e-05  2.4159208619520026e-05  2.4158249503640701e-05  2.4157166570333691e-05  2.4155957761300683e-05  2.4154622276099155e-05  2.4153161063282395e-05  2.4151577362543130e-05  2.4149877280896730e-05  2.4148070375601017e-05  2.4146170205158231e-05  2.4144194798489332e-05  2.4142166982832818e-05  2.4140114505163956e-05  2.4138069882254749e-05  2.4136069923062956e-05  2.4134154885464185e-05  2.4132367257709218e-05  2.4130750191938556e-05  2.4129345659136970e-05  2.4128192436695438e-05  2.4127324074661598e-05  2.4126767008093343e-05  2.4126538985293973e-05  2.4126647962411749e-05  2.4127091574883020e-05  2.4127857240254298e-05  2.4128922882897056e-05  2.4130258208493033e-05  2.4131826404083399e-05  2.4133586104997480e-05  2.4135493456784039e-05  2.4137504108226800e-05  2.4139574997116913e-05  2.4141665827861770e-05  2.4143740182512303e-05  2.4145766248097989e-05  2.4147717178393832e-05  2.4149571134442622e-05  2.4151311064294727e-05  2.4152924289092493e-05  2.4154401961491184e-05  2.4155738455682113e-05  2.4156930738235663e-05  2.4157977757606219e-05  2.4158879878972296e-05  2.4159638381137544e-05  2.4160255024018595e-05  2.4160731688931346e-05  2.4161070089383216e-05  2.4161271547404884e-05  2.4161336830169447e-05  2.3769262530449347e-05  2.3771838614801378e-05  2.3779756046169200e-05  2.3792606453303908e-05  2.3809747614957814e-05  2.3830366840208493e-05  2.3853555487598546e-05  2.3878384156797001e-05  2.3903969379492057e-05  2.3929525330369101e-05  2.3954397415865483e-05  2.3978077786871281e-05  2.4000205262812106e-05  2.4020553564803660e-05  2.4039012159778519e-05  2.4055563651187992e-05  2.4070260833492220e-05  2.4083205553156493e-05  2.4094530602969060e-05  2.4104385138524108e-05  2.4112923584856504e-05  2.4120297683561743e