<?xml version="1.0"?>
<VTKFile type="UnstructuredGrid"  version="0.1"  >
<UnstructuredGrid>
<Piece  NumberOfPoints="10201" NumberOfCells="20000">
<Points>
<DataArray  type="Float64"  NumberOfComponents="3"  format="ascii">0 0 0  0.25 0 0  0.5 0 0  0.75 0 0  1 0 0  1.25 0 0  1.5 0 0  1.75 0 0  2 0 0  2.25 0 0  2.5 0 0  2.75 0 0  3 0 0  3.25 0 0  3.5 0 0  3.75 0 0  4 0 0  4.25 0 0  4.5 0 0  4.75 0 0  5 0 0  5.25 0 0  5.5 0 0  5.75 0 0  6 0 0  6.25 0 0  6.5 0 0  6.75 0 0  7 0 0  7.25 0 0  7.5 0 0  7.75 0 0  8 0 0  8.25 0 0  8.5 0 0  8.75 0 0  9 0 0  9.25 0 0  9.5 0 0  9.75 0 0  10 0 0  10.25 0 0  10.5 0 0  10.75 0 0  11 0 0  11.25 0 0  11.5 0 0  11.75 0 0  12 0 0  12.25 0 0  12.5 0 0  12.75 0 0  13 0 0  13.25 0 0  13.5 0 0  13.75 0 0  14 0 0  14.25 0 0  14.5 0 0  14.75 0 0  15 0 0  15.25 0 0  15.5 0 0  15.75 0 0  16 0 0  16.25 0 0  16.5 0 0  16.75 0 0  17 0 0  17.25 0 0  17.5 0 0  17.75 0 0  18 0 0  18.25 0 0  18.5 0 0  18.75 0 0  19 0 0  19.25 0 0  19.5 0 0  19.75 0 0  20 0 0  20.25 0 0  20.5 0 0  20.75 0 0  21 0 0  21.25 0 0  21.5 0 0  21.75 0 0  22 0 0  22.25 0 0  22.5 0 0  22.75 0 0  23 0 0  23.25 0 0  23.5 0 0  23.75 0 0  24 0 0  24.25 0 0  24.5 0 0  24.75 0 0  25 0 0  0 0.25 0  0.25 0.25 0  0.5 0.25 0  0.75 0.25 0  1 0.25 0  1.25 0.25 0  1.5 0.25 0  1.75 0.25 0  2 0.25 0  2.25 0.25 0  2.5 0.25 0  2.75 0.25 0  3 0.25 0  3.25 0.25 0  3.5 0.25 0  3.75 0.25 0  4 0.25 0  4.25 0.25 0  4.5 0.25 0  4.75 0.25 0  5 0.25 0  5.25 0.25 0  5.5 0.25 0  5.75 0.25 0  6 0.25 0  6.25 0.25 0  6.5 0.25 0  6.75 0.25 0  7 0.25 0  7.25 0.25 0  7.5 0.25 0  7.75 0.25 0  8 0.25 0  8.25 0.25 0  8.5 0.25 0  8.75 0.25 0  9 0.25 0  9.25 0.25 0  9.5 0.25 0  9.75 0.25 0  10 0.25 0  10.25 0.25 0  10.5 0.25 0  10.75 0.25 0  11 0.25 0  11.25 0.25 0  11.5 0.25 0  11.75 0.25 0  12 0.25 0  12.25 0.25 0  12.5 0.25 0  12.75 0.25 0  13 0.25 0  13.25 0.25 0  13.5 0.25 0  13.75 0.25 0  14 0.25 0  14.25 0.25 0  14.5 0.25 0  14.75 0.25 0  15 0.25 0  15.25 0.25 0  15.5 0.25 0  15.75 0.25 0  16 0.25 0  16.25 0.25 0  16.5 0.25 0  16.75 0.25 0  17 0.25 0  17.25 0.25 0  17.5 0.25 0  17.75 0.25 0  18 0.25 0  18.25 0.25 0  18.5 0.25 0  18.75 0.25 0  19 0.25 0  19.25 0.25 0  19.5 0.25 0  19.75 0.25 0  20 0.25 0  20.25 0.25 0  20.5 0.25 0  20.75 0.25 0  21 0.25 0  21.25 0.25 0  21.5 0.25 0  21.75 0.25 0  22 0.25 0  22.25 0.25 0  22.5 0.25 0  22.75 0.25 0  23 0.25 0  23.25 0.25 0  23.5 0.25 0  23.75 0.25 0  24 0.25 0  24.25 0.25 0  24.5 0.25 0  24.75 0.25 0  25 0.25 0  0 0.5 0  0.25 0.5 0  0.5 0.5 0  0.75 0.5 0  1 0.5 0  1.25 0.5 0  1.5 0.5 0  1.75 0.5 0  2 0.5 0  2.25 0.5 0  2.5 0.5 0  2.75 0.5 0  3 0.5 0  3.25 0.5 0  3.5 0.5 0  3.75 0.5 0  4 0.5 0  4.25 0.5 0  4.5 0.5 0  4.75 0.5 0  5 0.5 0  5.25 0.5 0  5.5 0.5 0  5.75 0.5 0  6 0.5 0  6.25 0.5 0  6.5 0.5 0  6.75 0.5 0  7 0.5 0  7.25 0.5 0  7.5 0.5 0  7.75 0.5 0  8 0.5 0  8.25 0.5 0  8.5 0.5 0  8.75 0.5 0  9 0.5 0  9.25 0.5 0  9.5 0.5 0  9.75 0.5 0  10 0.5 0  10.25 0.5 0  10.5 0.5 0  10.75 0.5 0  11 0.5 0  11.25 0.5 0  11.5 0.5 0  11.75 0.5 0  12 0.5 0  12.25 0.5 0  12.5 0.5 0  12.75 0.5 0  13 0.5 0  13.25 0.5 0  13.5 0.5 0  13.75 0.5 0  14 0.5 0  14.25 0.5 0  14.5 0.5 0  14.75 0.5 0  15 0.5 0  15.25 0.5 0  15.5 0.5 0  15.75 0.5 0  16 0.5 0  16.25 0.5 0  16.5 0.5 0  16.75 0.5 0  17 0.5 0  17.25 0.5 0  17.5 0.5 0  17.75 0.5 0  18 0.5 0  18.25 0.5 0  18.5 0.5 0  18.75 0.5 0  19 0.5 0  19.25 0.5 0  19.5 0.5 0  19.75 0.5 0  20 0.5 0  20.25 0.5 0  20.5 0.5 0  20.75 0.5 0  21 0.5 0  21.25 0.5 0  21.5 0.5 0  21.75 0.5 0  22 0.5 0  22.25 0.5 0  22.5 0.5 0  22.75 0.5 0  23 0.5 0  23.25 0.5 0  23.5 0.5 0  23.75 0.5 0  24 0.5 0  24.25 0.5 0  24.5 0.5 0  24.75 0.5 0  25 0.5 0  0 0.75 0  0.25 0.75 0  0.5 0.75 0  0.75 0.75 0  1 0.75 0  1.25 0.75 0  1.5 0.75 0  1.75 0.75 0  2 0.75 0  2.25 0.75 0  2.5 0.75 0  2.75 0.75 0  3 0.75 0  3.25 0.75 0  3.5 0.75 0  3.75 0.75 0  4 0.75 0  4.25 0.75 0  4.5 0.75 0  4.75 0.75 0  5 0.75 0  5.25 0.75 0  5.5 0.75 0  5.75 0.75 0  6 0.75 0  6.25 0.75 0  6.5 0.75 0  6.75 0.75 0  7 0.75 0  7.25 0.75 0  7.5 0.75 0  7.75 0.75 0  8 0.75 0  8.25 0.75 0  8.5 0.75 0  8.75 0.75 0  9 0.75 0  9.25 0.75 0  9.5 0.75 0  9.75 0.75 0  10 0.75 0  10.25 0.75 0  10.5 0.75 0  10.75 0.75 0  11 0.75 0  11.25 0.75 0  11.5 0.75 0  11.75 0.75 0  12 0.75 0  12.25 0.75 0  12.5 0.75 0  12.75 0.75 0  13 0.75 0  13.25 0.75 0  13.5 0.75 0  13.75 0.75 0  14 0.75 0  14.25 0.75 0  14.5 0.75 0  14.75 0.75 0  15 0.75 0  15.25 0.75 0  15.5 0.75 0  15.75 0.75 0  16 0.75 0  16.25 0.75 0  16.5 0.75 0  16.75 0.75 0  17 0.75 0  17.25 0.75 0  17.5 0.75 0  17.75 0.75 0  18 0.75 0  18.25 0.75 0  18.5 0.75 0  18.75 0.75 0  19 0.75 0  19.25 0.75 0  19.5 0.75 0  19.75 0.75 0  20 0.75 0  20.25 0.75 0  20.5 0.75 0  20.75 0.75 0  21 0.75 0  21.25 0.75 0  21.5 0.75 0  21.75 0.75 0  22 0.75 0  22.25 0.75 0  22.5 0.75 0  22.75 0.75 0  23 0.75 0  23.25 0.75 0  23.5 0.75 0  23.75 0.75 0  24 0.75 0  24.25 0.75 0  24.5 0.75 0  24.75 0.75 0  25 0.75 0  0 1 0  0.25 1 0  0.5 1 0  0.75 1 0  1 1 0  1.25 1 0  1.5 1 0  1.75 1 0  2 1 0  2.25 1 0  2.5 1 0  2.75 1 0  3 1 0  3.25 1 0  3.5 1 0  3.75 1 0  4 1 0  4.25 1 0  4.5 1 0  4.75 1 0  5 1 0  5.25 1 0  5.5 1 0  5.75 1 0  6 1 0  6.25 1 0  6.5 1 0  6.75 1 0  7 1 0  7.25 1 0  7.5 1 0  7.75 1 0  8 1 0  8.25 1 0  8.5 1 0  8.75 1 0  9 1 0  9.25 1 0  9.5 1 0  9.75 1 0  10 1 0  10.25 1 0  10.5 1 0  10.75 1 0  11 1 0  11.25 1 0  11.5 1 0  11.75 1 0  12 1 0  12.25 1 0  12.5 1 0  12.75 1 0  13 1 0  13.25 1 0  13.5 1 0  13.75 1 0  14 1 0  14.25 1 0  14.5 1 0  14.75 1 0  15 1 0  15.25 1 0  15.5 1 0  15.75 1 0  16 1 0  16.25 1 0  16.5 1 0  16.75 1 0  17 1 0  17.25 1 0  17.5 1 0  17.75 1 0  18 1 0  18.25 1 0  18.5 1 0  18.75 1 0  19 1 0  19.25 1 0  19.5 1 0  19.75 1 0  20 1 0  20.25 1 0  20.5 1 0  20.75 1 0  21 1 0  21.25 1 0  21.5 1 0  21.75 1 0  22 1 0  22.25 1 0  22.5 1 0  22.75 1 0  23 1 0  23.25 1 0  23.5 1 0  23.75 1 0  24 1 0  24.25 1 0  24.5 1 0  24.75 1 0  25 1 0  0 1.25 0  0.25 1.25 0  0.5 1.25 0  0.75 1.25 0  1 1.25 0  1.25 1.25 0  1.5 1.25 0  1.75 1.25 0  2 1.25 0  2.25 1.25 0  2.5 1.25 0  2.75 1.25 0  3 1.25 0  3.25 1.25 0  3.5 1.25 0  3.75 1.25 0  4 1.25 0  4.25 1.25 0  4.5 1.25 0  4.75 1.25 0  5 1.25 0  5.25 1.25 0  5.5 1.25 0  5.75 1.25 0  6 1.25 0  6.25 1.25 0  6.5 1.25 0  6.75 1.25 0  7 1.25 0  7.25 1.25 0  7.5 1.25 0  7.75 1.25 0  8 1.25 0  8.25 1.25 0  8.5 1.25 0  8.75 1.25 0  9 1.25 0  9.25 1.25 0  9.5 1.25 0  9.75 1.25 0  10 1.25 0  10.25 1.25 0  10.5 1.25 0  10.75 1.25 0  11 1.25 0  11.25 1.25 0  11.5 1.25 0  11.75 1.25 0  12 1.25 0  12.25 1.25 0  12.5 1.25 0  12.75 1.25 0  13 1.25 0  13.25 1.25 0  13.5 1.25 0  13.75 1.25 0  14 1.25 0  14.25 1.25 0  14.5 1.25 0  14.75 1.25 0  15 1.25 0  15.25 1.25 0  15.5 1.25 0  15.75 1.25 0  16 1.25 0  16.25 1.25 0  16.5 1.25 0  16.75 1.25 0  17 1.25 0  17.25 1.25 0  17.5 1.25 0  17.75 1.25 0  18 1.25 0  18.25 1.25 0  18.5 1.25 0  18.75 1.25 0  19 1.25 0  19.25 1.25 0  19.5 1.25 0  19.75 1.25 0  20 1.25 0  20.25 1.25 0  20.5 1.25 0  20.75 1.25 0  21 1.25 0  21.25 1.25 0  21.5 1.25 0  21.75 1.25 0  22 1.25 0  22.25 1.25 0  22.5 1.25 0  22.75 1.25 0  23 1.25 0  23.25 1.25 0  23.5 1.25 0  23.75 1.25 0  24 1.25 0  24.25 1.25 0  24.5 1.25 0  24.75 1.25 0  25 1.25 0  0 1.5 0  0.25 1.5 0  0.5 1.5 0  0.75 1.5 0  1 1.5 0  1.25 1.5 0  1.5 1.5 0  1.75 1.5 0  2 1.5 0  2.25 1.5 0  2.5 1.5 0  2.75 1.5 0  3 1.5 0  3.25 1.5 0  3.5 1.5 0  3.75 1.5 0  4 1.5 0  4.25 1.5 0  4.5 1.5 0  4.75 1.5 0  5 1.5 0  5.25 1.5 0  5.5 1.5 0  5.75 1.5 0  6 1.5 0  6.25 1.5 0  6.5 1.5 0  6.75 1.5 0  7 1.5 0  7.25 1.5 0  7.5 1.5 0  7.75 1.5 0  8 1.5 0  8.25 1.5 0  8.5 1.5 0  8.75 1.5 0  9 1.5 0  9.25 1.5 0  9.5 1.5 0  9.75 1.5 0  10 1.5 0  10.25 1.5 0  10.5 1.5 0  10.75 1.5 0  11 1.5 0  11.25 1.5 0  11.5 1.5 0  11.75 1.5 0  12 1.5 0  12.25 1.5 0  12.5 1.5 0  12.75 1.5 0  13 1.5 0  13.25 1.5 0  13.5 1.5 0  13.75 1.5 0  14 1.5 0  14.25 1.5 0  14.5 1.5 0  14.75 1.5 0  15 1.5 0  15.25 1.5 0  15.5 1.5 0  15.75 1.5 0  16 1.5 0  16.25 1.5 0  16.5 1.5 0  16.75 1.5 0  17 1.5 0  17.25 1.5 0  17.5 1.5 0  17.75 1.5 0  18 1.5 0  18.25 1.5 0  18.5 1.5 0  18.75 1.5 0  19 1.5 0  19.25 1.5 0  19.5 1.5 0  19.75 1.5 0  20 1.5 0  20.25 1.5 0  20.5 1.5 0  20.75 1.5 0  21 1.5 0  21.25 1.5 0  21.5 1.5 0  21.75 1.5 0  22 1.5 0  22.25 1.5 0  22.5 1.5 0  22.75 1.5 0  23 1.5 0  23.25 1.5 0  23.5 1.5 0  23.75 1.5 0  24 1.5 0  24.25 1.5 0  24.5 1.5 0  24.75 1.5 0  25 1.5 0  0 1.75 0  0.25 1.75 0  0.5 1.75 0  0.75 1.75 0  1 1.75 0  1.25 1.75 0  1.5 1.75 0  1.75 1.75 0  2 1.75 0  2.25 1.75 0  2.5 1.75 0  2.75 1.75 0  3 1.75 0  3.25 1.75 0  3.5 1.75 0  3.75 1.75 0  4 1.75 0  4.25 1.75 0  4.5 1.75 0  4.75 1.75 0  5 1.75 0  5.25 1.75 0  5.5 1.75 0  5.75 1.75 0  6 1.75 0  6.25 1.75 0  6.5 1.75 0  6.75 1.75 0  7 1.75 0  7.25 1.75 0  7.5 1.75 0  7.75 1.75 0  8 1.75 0  8.25 1.75 0  8.5 1.75 0  8.75 1.75 0  9 1.75 0  9.25 1.75 0  9.5 1.75 0  9.75 1.75 0  10 1.75 0  10.25 1.75 0  10.5 1.75 0  10.75 1.75 0  11 1.75 0  11.25 1.75 0  11.5 1.75 0  11.75 1.75 0  12 1.75 0  12.25 1.75 0  12.5 1.75 0  12.75 1.75 0  13 1.75 0  13.25 1.75 0  13.5 1.75 0  13.75 1.75 0  14 1.75 0  14.25 1.75 0  14.5 1.75 0  14.75 1.75 0  15 1.75 0  15.25 1.75 0  15.5 1.75 0  15.75 1.75 0  16 1.75 0  16.25 1.75 0  16.5 1.75 0  16.75 1.75 0  17 1.75 0  17.25 1.75 0  17.5 1.75 0  17.75 1.75 0  18 1.75 0  18.25 1.75 0  18.5 1.75 0  18.75 1.75 0  19 1.75 0  19.25 1.75 0  19.5 1.75 0  19.75 1.75 0  20 1.75 0  20.25 1.75 0  20.5 1.75 0  20.75 1.75 0  21 1.75 0  21.25 1.75 0  21.5 1.75 0  21.75 1.75 0  22 1.75 0  22.25 1.75 0  22.5 1.75 0  22.75 1.75 0  23 1.75 0  23.25 1.75 0  23.5 1.75 0  23.75 1.75 0  24 1.75 0  24.25 1.75 0  24.5 1.75 0  24.75 1.75 0  25 1.75 0  0 2 0  0.25 2 0  0.5 2 0  0.75 2 0  1 2 0  1.25 2 0  1.5 2 0  1.75 2 0  2 2 0  2.25 2 0  2.5 2 0  2.75 2 0  3 2 0  3.25 2 0  3.5 2 0  3.75 2 0  4 2 0  4.25 2 0  4.5 2 0  4.75 2 0  5 2 0  5.25 2 0  5.5 2 0  5.75 2 0  6 2 0  6.25 2 0  6.5 2 0  6.75 2 0  7 2 0  7.25 2 0  7.5 2 0  7.75 2 0  8 2 0  8.25 2 0  8.5 2 0  8.75 2 0  9 2 0  9.25 2 0  9.5 2 0  9.75 2 0  10 2 0  10.25 2 0  10.5 2 0  10.75 2 0  11 2 0  11.25 2 0 
[...]
<PointData  Scalars="f_26"> 
<DataArray  type="Float64"  Name="f_26"  format="ascii">2.2571025581881971e-05  2.2586169753806816e-05  2.2621805671703132e-05  2.2677654283214548e-05  2.2751640431075199e-05  2.2840707523575397e-05  2.2941197709260475e-05  2.3049165048265503e-05  2.3160679994416828e-05  2.3272108714140846e-05  2.3380335671864355e-05  2.3482905034327181e-05  2.3578072954022418e-05  2.3664780047492124e-05  2.3742565409910302e-05  2.3811447941799497e-05  2.3871798551479024e-05  2.3924220666861808e-05  2.3969449304799231e-05  2.4008272699699076e-05  2.4041476082743207e-05  2.4069804683767650e-05  2.4093942008071836e-05  2.4114499404565733e-05  2.4132013435372327e-05  2.4146948255364813e-05  2.4159700916520452e-05  2.4170608128039601e-05  2.4179953494273368e-05  2.4187974619606222e-05  2.4194869729967735e-05  2.4200803637028514e-05  2.4205912984895960e-05  2.4210310788398350e-05  2.4214090310968873e-05  2.4217328349167411e-05  2.4220087997423725e-05  2.4222420965734412e-05  2.4224369518167110e-05  2.4225968093276255e-05  2.4227244660237227e-05  2.4228221857423179e-05  2.4228917953678469e-05  2.4229347666847464e-05  2.4229522869216231e-05  2.4229453205346150e-05  2.4229146644200978e-05  2.4228609984338687e-05  2.4227849328087031e-05  2.4226870537870178e-05  2.4225679685025065e-05  2.4224283498373669e-05  2.4222689816354143e-05  2.4220908042553213e-05  2.4218949599976415e-05  2.4216828374380846e-05  2.4214561131628114e-05  2.4212167888581677e-05  2.4209672212012495e-05  2.4207101415877958e-05  2.4204486624908979e-05  2.4201862672444470e-05  2.4199267803615651e-05  2.4196743161860891e-05  2.4194332047582683e-05  2.4192078952321079e-05  2.4190028389326026e-05  2.4188223560481518e-05  2.4186704918255490e-05  2.4185508697467253e-05  2.4184665502875770e-05  2.4184199042907052e-05  2.4184125095949598e-05  2.4184450783224958e-05  2.4185174202094349e-05  2.4186284447696197e-05  2.4187762021788400e-05  2.4189579598811970e-05  2.4191703093683479e-05  2.4194092956327984e-05  2.4196705606252829e-05  2.4199494917207717e-05  2.4202413666745284e-05  2.4205414876931223e-05  2.4208452988574124e-05  2.4211484829912534e-05  2.4214470359550803e-05  2.4217373180766049e-05  2.4220160838816470e-05  2.4222804923829524e-05  2.4225281009018293e-05  2.4227568457548954e-05  2.4229650131780318e-05  2.4231512036245573e-05  2.4233142920692625e-05  2.4234533860417057e-05  2.4235677811918102e-05  2.4236569088164305e-05  2.4237202507320800e-05  2.4237571184676876e-05  2.4237658394127709e-05  2.2584844262505971e-05  2.2597166535660981e-05  2.2631798726819802e-05  2.2686970211259429e-05  2.2760287032396873e-05  2.2848634000398766e-05  2.2948358884743813e-05  2.3055538674939383e-05  2.3166270073564534e-05  2.3276943181521077e-05  2.3384461455248198e-05  2.3486382167699943e-05  2.3580968862027229e-05  2.3667164659276254e-05  2.3744507382501734e-05  2.3813012008108186e-05  2.3873043860524645e-05  2.3925199924883986e-05  2.3970208519591326e-05  2.4008851349687096e-05  2.4041907561325814e-05  2.4070116900529291e-05  2.4094158058032930e-05  2.4114638242783880e-05  2.4132090515997043e-05  2.4146976111357858e-05  2.4159689668883712e-05  2.4170565922105707e-05  2.4179886866156634e-05  2.4187888799058790e-05  2.4194768887338529e-05  2.4200691082355169e-05  2.4205791326808970e-05  2.4210182059793667e-05  2.4213956067519495e-05  2.4217189745828132e-05  2.4219945847213899e-05  2.4222275784302499e-05  2.4224221556965686e-05  2.4225817363611465e-05  2.4227090949999248e-05  2.4228064741947567e-05  2.4228756801924523e-05  2.4229181643901727e-05  2.4229350936029624e-05  2.4229274116586198e-05  2.4228958945139315e-05  2.4228412007791822e-05  2.4227639192576500e-05  2.4226646148354387e-05  2.4225438737763228e-05  2.4224023491689067e-05  2.4222408069239708e-05  2.4220601723168517e-05  2.4218615766075900e-05  2.4216464027536688e-05  2.4214163286714840e-05  2.4211733659326242e-05  2.4209198912450786e-05  2.4206586676291672e-05  2.4203928519279597e-05  2.4201259852737880e-05  2.4198619634442759e-05  2.4196049847441184e-05  2.4193594741705517e-05  2.4191299841404685e-05  2.4189210738945258e-05  2.4187371717032877e-05  2.4185824259799520e-05  2.4184605531134899e-05  2.4183746910287958e-05  2.4183272679432458e-05  2.4183198953813970e-05  2.4183532931961157e-05  2.4184272522119577e-05  2.4185406373598708e-05  2.4186914311077484e-05  2.4188768139535065e-05  2.4190932760753334e-05  2.4193367522093756e-05  2.4196027706327121e-05  2.4198866068347085e-05  2.4201834330102176e-05  2.4204884557533676e-05  2.4207970360561980e-05  2.4211047876825384e-05  2.4214076519659253e-05  2.4217019488823413e-05  2.4219844057413772e-05  2.4222521659510025e-05  2.4225027810244653e-05  2.4227341893388326e-05  2.4229446851758471e-05  2.4231328813388059e-05  2.4232976681977279e-05  2.4234381714044866e-05  2.4235537098039130e-05  2.4236437547580144e-05  2.4237078957841657e-05  2.4237458468823840e-05  2.4237577080738652e-05  2.2616696522359007e-05  2.2628024981881836e-05  2.2661392513763434e-05  2.2715078123111992e-05  2.2786640979605983e-05  2.2872975528721819e-05  2.2970483562461325e-05  2.3075320042873105e-05  2.3183668226272413e-05  2.3292001636996796e-05  2.3397295351463379e-05  2.3497161064975954e-05  2.3589897519414953e-05  2.3674464693412541e-05  2.3750401818083633e-05  2.3817713701047703e-05  2.3876747896671419e-05  2.3928079511596931e-05  2.3972413604409135e-05  2.4010509151008696e-05  2.4043124288447501e-05  2.4070980094995371e-05  2.4094739151136470e-05  2.4114995066170819e-05  2.4132269612771577e-05  2.4147014773706416e-05  2.4159617679951949e-05  2.4170407011101787e-05  2.4179659902467658e-05  2.4187608758480363e-05  2.4194447624987443e-05  2.4200337945002625e-05  2.4205413633901239e-05  2.4209785478350295e-05  2.4213544902014298e-05  2.4216767160382583e-05  2.4219514034109684e-05  2.4221836089992352e-05  2.4223774574417310e-05  2.4225362997920713e-05  2.4226628462709514e-05  2.4227592778366883e-05  2.4228273404899265e-05  2.4228684256951897e-05  2.4228836398447479e-05  2.4228738653024026e-05  2.4228398152342827e-05  2.4227820841451573e-05  2.4227011957744752e-05  2.4225976497474243e-05  2.4224719681031692e-05  2.4223247425157597e-05  2.4221566826653330e-05  2.4219686657939384e-05  2.4217617869835623e-05  2.4215374091250416e-05  2.4212972109198156e-05  2.4210432306027578e-05  2.4207779024435733e-05  2.4205040825461917e-05  2.4202250601071937e-05  2.4199445502130422e-05  2.4196666645480494e-05  2.4193958571293353e-05  2.4191368434233029e-05  2.4188944929153424e-05  2.4186736973132807e-05  2.4184792188992767e-05  2.4183155258663350e-05  2.4181866234973218e-05  2.4180958914685678e-05  2.4180459381268433e-05  2.4180384821253624e-05  2.4180742702678704e-05  2.4181530379056227e-05  2.4182735150103732e-05  2.4184334774683568e-05  2.4186298396222226e-05  2.4188587810352282e-05  2.4191158981946835e-05  2.4193963706162767e-05  2.4196951306172928e-05  2.4200070268121527e-05  2.4203269729511684e-05  2.4206500758054555e-05  2.4209717381084971e-05  2.4212877348312335e-05  2.4215942630805986e-05  2.4218879675305405e-05  2.4221659444531707e-05  2.4224257281142399e-05  2.4226652635793845e-05  2.4228828699250192e-05  2.4230771975575644e-05  2.4232471829294467e-05  2.4233920035569288e-05  2.4235110362131845e-05  2.4236038223429409e-05  2.4236700494418364e-05  2.4237095701699564e-05  2.4237224993792516e-05  2.2666740321746289e-05  2.2677398626018546e-05  2.2709277726557781e-05  2.2760816120377894e-05  2.2829657000431562e-05  2.2912786142707539e-05  2.3006722888293116e-05  2.3107760657720033e-05  2.3212229020414294e-05  2.3316741088753531e-05  2.3418392101362119e-05  2.3514885881072260e-05  2.3604581694938731e-05  2.3686469567935245e-05  2.3760092830220774e-05  2.3825440745420500e-05  2.3882832284795091e-05  2.3932806812300350e-05  2.3976031117405987e-05  2.4013226650393907e-05  2.4045116810800657e-05  2.4072391801865822e-05  2.4095687571604299e-05  2.4115575268536429e-05  2.4132558044281787e-05  2.4147072642328389e-05  2.4159493840778712e-05  2.4170140373143567e-05  2.4179281399916691e-05  2.4187142942620940e-05  2.4193913935105178e-05  2.4199751713301784e-05  2.4204786873407752e-05  2.4209127495800018e-05  2.4212862770796214e-05  2.4216066082241472e-05  2.4218797612738048e-05  2.4221106534915252e-05  2.4223032849667026e-05  2.4224608926841510e-05  2.4225860797745101e-05  2.4226809242785980e-05  2.4227470712039812e-05  2.4227858111655186e-05  2.4227981484864946e-05  2.4227848612875358e-05  2.4227465557953043e-05  2.4226837168464680e-05  2.4225967563263735e-05  2.4224860610456801e-05  2.4223520413000093e-05  2.4221951810546663e-05  2.4220160903268037e-05  2.4218155598819153e-05  2.4215946178073321e-05  2.4213545868696670e-05  2.4210971408182578e-05  2.4208243569951269e-05  2.4205387618108234e-05  2.4202433649283627e-05  2.4199416774728888e-05  2.4196377093787653e-05  2.4193359412283857e-05  2.4190412667404585e-05  2.4187589034989124e-05  2.4184942715747338e-05  2.4182528422854976e-05  2.4180399622584358e-05  2.4178606609102309e-05  2.4177194520569088e-05  2.4176201422266050e-05  2.4175656590184961e-05  2.4175579122996935e-05  2.4175976990970890e-05  2.4176846598631257e-05  2.4178172897072206e-05  2.4179930036690449e-05  2.4182082507166606e-05  2.4184586674096061e-05  2.4187392594929606e-05  2.4190445983294952e-05  2.4193690190801257e-05  2.4197068087671263e-05  2.4200523745151292e-05  2.4204003849960753e-05  2.4207458810266483e-05  2.4210843540446214e-05  2.4214117935712807e-05  2.4217247065980286e-05  2.4220201130619363e-05  2.4222955222244205e-05  2.4225488949246006e-05  2.4227785964634972e-05  2.4229833444220784e-05  2.4231621551688589e-05  2.4233142923338891e-05  2.4234392203279411e-05  2.4235365663449977e-05  2.4236060952780170e-05  2.4236477017309363e-05  2.4236614109030043e-05  2.2733548574282629e-05  2.2743534570051876e-05  2.2773642497203505e-05  2.2822440650190286e-05  2.2887703007478595e-05  2.2966564969176348e-05  2.3055721465463210e-05  2.3151661323207790e-05  2.3250915072036319e-05  2.3350285202540914e-05  2.3447029211002423e-05  2.3538975332370420e-05  2.3624564964703651e-05  2.3702829537440595e-05  2.3773319032731203e-05  2.3836002929717338e-05  2.3891162729284158e-05  2.3939290474952979e-05  2.3981002001462211e-05  2.4016968591028457e-05  2.4047867054046083e-05  2.4074346075261642e-05  2.4097005708221493e-05  2.4116386769425505e-05  2.4132967219103368e-05  2.4147163150703482e-05  2.4159332577720318e-05  2.4169780715159874e-05  2.4178765867943037e-05  2.4186505355315078e-05  2.4193181129785653e-05  2.4198944907863235e-05  2.4203922734793415e-05  2.4208218971444566e-05  2.4211919730252301e-05  2.4215095807697416e-05  2.4217805169647964e-05  2.4220095047591324e-05  2.4222003701398406e-05  2.4223561899820996e-05  2.4224794164700487e-05  2.4225719819628212e-05  2.4226353878967625e-05  2.4226707808925188e-05  2.4226790188791971e-05  2.4226607297528036e-05  2.4226163648418436e-05  2.4225462492438277e-05  2.4224506309031495e-05  2.4223297301008066e-05  2.4221837907940834e-05  2.4220131349518913e-05  2.4218182206503206e-05  2.4215997041962915e-05  2.4213585059137567e-05  2.4210958784465647e-05  2.4208134755125538e-05  2.4205134180179730e-05  2.4201983533757144e-05  2.4198715028684497e-05  2.4195366910993587e-05  2.4191983511495189e-05  2.4188614991958271e-05  2.4185316732050523e-05  2.4182148320250833e-05  2.4179172137676424e-05  2.4176451557126022e-05  2.4174048818065810e-05  2.4172022677752676e-05  2.4170425974078826e-05  2.4169303261525601e-05  2.4168688692884154e-05  2.4168604312767273e-05  2.4169058903455279e-05  2.4170047481216838e-05  2.4171551486614757e-05  2.4173539652213304e-05  2.4175969473245824e-05  2.4178789158459186e-05  2.4181939905140254e-05  2.4185358327326191e-05  2.4188978869620858e-05  2.4192736058485350e-05  2.4196566474035136e-05  2.4200410363000269e-05  2.4204212852348866e-05  2.4207924758708019e-05  2.4211503018011622e-05  2.4214910781100348e-05  2.4218117233988336e-05  2.4221097206947130e-05  2.4223830635878745e-05  2.4226301934421175e-05  2.4228499327656248e-05  2.4230414189835157e-05  2.4232040420608739e-05  2.4233373887804028e-05  2.4234411959542036e-05  2.4235153140226900e-05  2.4235596798856516e-05  2.4235742902358511e-05  2.2814850837709233e-05  2.2824098696894740e-05  2.2852150567480424e-05  2.2897689234136514e-05  2.2958643187306986e-05  2.3032338857248165e-05  2.3115694211845894e-05  2.3205441646953792e-05  2.3298358328345477e-05  2.3391476787382975e-05  2.3482250465044944e-05  2.3568657533623031e-05  2.3649238595966572e-05  2.3723075650541339e-05  2.3789727748170827e-05  2.3849141753760732e-05  2.3901555195996579e-05  2.3947404067502090e-05  2.3987243480411271e-05  2.4021684637553246e-05  2.4051348312930386e-05  2.4076833053944909e-05  2.4098695406221335e-05  2.4117439290929197e-05  2.4133511923267859e-05  2.4147304113366736e-05  2.4159153285022455e-05  2.4169347999984293e-05  2.4178133150099637e-05  2.4185715269410480e-05  2.4192267630911330e-05  2.4197934941725089e-05  2.4202837550435988e-05  2.4207075144249178e-05  2.4210729952147647e-05  2.4213869491453172e-05  2.4216548905169706e-05  2.4218812940451824e-05  2.4220697617421379e-05  2.4222231634298286e-05  2.4223437550665738e-05  2.4224332786421999e-05  2.4224930470017438e-05  2.4225240166154009e-05  2.4225268510306108e-05  2.4225019775178923e-05  2.4224496392454848e-05  2.4223699451735990e-05  2.4222629197266669e-05  2.4221285541559816e-05  2.4219668613151386e-05  2.4217779353018328e-05  2.4215620170336253e-05  2.4213195662837197e-05  2.4210513399712981e-05  2.4207584755568444e-05  2.4204425772344143e-05  2.4201058012707737e-05  2.4197509353905014e-05  2.4193814656750025e-05  2.4190016232172955e-05  2.4186164019894212e-05  2.4182315393007378e-05  2.4178534511107468e-05  2.4174891165060911e-05  2.4171459089322045e-05  2.4168313761787354e-05  2.4165529763271991e-05  2.4163177823301530e-05  2.4161321728805230e-05  2.4160015309512944e-05  2.4159299731110090e-05  2.4159201319425272e-05  2.4159730104567505e-05  2.4160879215677038e-05  2.4162625181570819e-05  2.4164929109857923e-05  2.4167738638190696e-05  2.4170990486595873e-05  2.4174613397110150e-05  2.4178531230205297e-05  2.4182665996477642e-05  2.4186940632787900e-05  2.4191281377851540e-05  2.4195619655447818e-05  2.4199893426500045e-05  2.4204048018272041e-05  2.4208036475874776e-05  2.4211819506416960e-05  2.4215365099609675e-05  2.4218647911991637e-05  2.4221648497526299e-05  2.4224352457746701e-05  2.4226749572349443e-05  2.4228832958201419e-05  2.4230598292550295e-05  2.4232043125437830e-05  2.4233166296279576e-05  2.4233967457695332e-05  2.4234446691287114e-05  2.4234604174313246e-05  2.2907817079459325e-05  2.2916263172372118e-05  2.2942017622877883e-05  2.2983878093567544e-05  2.3039946217096843e-05  2.3107770416266692e-05  2.3184528104866743e-05  2.3267232200958337e-05  2.3352940843765939e-05  2.3438946372206199e-05  2.3522922297646898e-05  2.3603014833018475e-05  2.3677876020266619e-05  2.3746645337702987e-05  2.3808893295728017e-05  2.3864542953777662e-05  2.3913784057324917e-05  2.3956991015467570e-05  2.3994651735803354e-05  2.4027310524748099e-05  2.4055525418069081e-05  2.4079838539211376e-05  2.4100757229351732e-05  2.4118743486650252e-05  2.4134209433065342e-05  2.4147516893033151e-05  2.4158979584922420e-05  2.4168866816974779e-05  2.4177407909249522e-05  2.4184796822431443e-05  2.4191196667613827e-05  2.4196743908775682e-05  2.4201552163557411e-05  2.4205715569176496e-05  2.4209311718178876e-05  2.4212404190453894e-05  2.4215044718981313e-05  2.4217275031043311e-05  2.4219128406855796e-05  2.4220630995602233e-05  2.4221802925900745e-05  2.4222659244561785e-05  2.4223210714549055e-05  2.4223464500577293e-05  2.4223424768860827e-05  2.4223093226157871e-05  2.4222469622352626e-05  2.4221552240229475e-05  2.4220338395603854e-05  2.4218824970295281e-05  2.4217008999194709e-05  2.4214888330446772e-05  2.4212462374023151e-05  2.4209732948151036e-05  2.4206705224639369e-05  2.4203388762683211e-05  2.4199798606030247e-05  2.4195956400678896e-05  2.4191891470354292e-05  2.4187641766451702e-05  2.4183254590388036e-05  2.4178786972634182e-05  2.4174305587974683e-05  2.4169886094703503e-05  2.4165611809787216e-05  2.4161571674166120e-05  2.4157857521415021e-05  2.4154560734789479e-05  2.4151768454672724e-05  2.4149559570248561e-05  2.4148000784145128e-05  2.4147143065881002e-05  2.4147018801400101e-05  2.4147639899198412e-05  2.4148997032246104e-05  2.4151060088960330e-05  2.4153779790321870e-05  2.4157090320196142e-05  2.4160912727156163e-05  2.4165158799738140e-05  2.4169735098364116e-05  2.4174546845066733e-05  2.4179501420082850e-05  2.4184511282140080e-05  2.4189496205304291e-05  2.4194384798884694e-05  2.4199115339839374e-05  2.4203635994361049e-05  2.4207904535095900e-05  2.4211887673723578e-05  2.4215560128221425e-05  2.4218903533793923e-05  2.4221905290038955e-05  2.4224557417872010e-05  2.4226855480685604e-05  2.4228797606904324e-05  2.4230383636258049e-05  2.4231614399537152e-05  2.4232491130396854e-05  2.4233014997466844e-05  2.4233186739189748e-05  2.3009267076302330e-05  2.3016869390573982e-05  2.3040155470034097e-05  2.3078044048572951e-05  2.3128825242211510e-05  2.3190291714747613e-05  2.3259905478446988e-05  2.3334984594623813e-05  2.3412890085556088e-05  2.3491192293721923e-05  2.3567799112692206e-05  2.3641035505129852e-05  2.3709672500515283e-05  2.3772911888412130e-05  2.3830338152404275e-05  2.3881851111717014e-05  2.3927591710485510e-05  2.3967870542351926e-05  2.4003105228265196e-05  2.4033769582589714e-05  2.4060355083031293e-05  2.4083343614352198e-05  2.4103189669664512e-05  2.4120309958970755e-05  2.4135078482478852e-05  2.4147825407373575e-05  2.4158838425499053e-05  2.4168365597199853e-05  2.4176618969579530e-05  2.4183778484325247e-05  2.4189995862379727e-05  2.4195398277507462e-05  2.4200091717539378e-05  2.4204163989880456e-05  2.4207687364571346e-05  2.4210720870106480e-05  2.4213312269136035e-05  2.4215499746652122e-05  2.4217313344794836e-05  2.4218776177746100e-05  2.4219905458469656e-05  2.4220713367051325e-05  2.4221207788553603e-05  2.4221392946880164e-05  2.4221269960266277e-05  2.4220837343686476e-05  2.4220091483634906e-05  2.4219027111243145e-05  2.4217637800328819e-05  2.4215916517392298e-05  2.4213856250360257e-05  2.4211450741450301e-05  2.4208695346208221e-05  2.4205588034756545e-05  2.4202130541757433e-05  2.4198329657780191e-05  2.4194198636175680e-05  2.4189758666197686e-05  2.4185040335765777e-05  2.4180084977808582e-05  2.4174945765735336e-05  2.4169688400775046e-05  2.4164391222297140e-05  2.4159144577810926e-05  2.4154049317492692e-05  2.4149214332072769e-05  2.4144753132376431e-05  2.4140779568571883e-05  2.4137402896795936e-05  2.4134722505354213e-05  2.4132822694757668e-05  2.4131767948867275e-05  2.4131599126240986e-05  2.4132330936974078e-05  2.4133950956004992e-05  2.4136420273466606e-05  2.4139675717581665e-05  2.4143633430064893e-05  2.4148193450302984e-05  2.4153244888817480e-05  2.4158671249795637e-05  2.4164355494343040e-05  2.4170184510001042e-05  2.4176052752283438e-05  2.4181864933279551e-05  2.4187537735247586e-05  2.4193000612129288e-05  2.4198195802670380e-05  2.4203077713845428e-05  2.4207611844952172e-05  2.4211773415897487e-05  2.4215545843699648e-05  2.4218919184787855e-05  2.4221888632088013e-05  2.4224453128655976e-05  2.4226614135919214e-05  2.4228374575374423e-05  2.4229737947912600e-05  2.4230707624441438e-05  2.4231286295243757e-05  2.4231475565366596e-05  2.3115882419644348e-05  2.3122626284921269e-05  2.3143356625174082e-05  2.3177119006859250e-05  2.3222402185104091e-05  2.3277256096115506e-05  2.3339440834689189e-05  2.3406591542712972e-05  2.3476381543095912e-05  2.3546666095440853e-05  2.3615592501207070e-05  2.3681668370247323e-05  2.3743787062323491e-05  2.3801215726087206e-05  2.3853555559895075e-05  2.3900685422711018e-05  2.3942699105179050e-05  2.3979844299289220e-05  2.4012468514518004e-05  2.4040974590734179e-05  2.4065786442746538e-05  2.4087324345036511e