<?xml version="1.0"?>
<VTKFile type="UnstructuredGrid"  version="0.1"  >
<UnstructuredGrid>
<Piece  NumberOfPoints="10201" NumberOfCells="20000">
<Points>
<DataArray  type="Float64"  NumberOfComponents="3"  format="ascii">0 0 0  0.25 0 0  0.5 0 0  0.75 0 0  1 0 0  1.25 0 0  1.5 0 0  1.75 0 0  2 0 0  2.25 0 0  2.5 0 0  2.75 0 0  3 0 0  3.25 0 0  3.5 0 0  3.75 0 0  4 0 0  4.25 0 0  4.5 0 0  4.75 0 0  5 0 0  5.25 0 0  5.5 0 0  5.75 0 0  6 0 0  6.25 0 0  6.5 0 0  6.75 0 0  7 0 0  7.25 0 0  7.5 0 0  7.75 0 0  8 0 0  8.25 0 0  8.5 0 0  8.75 0 0  9 0 0  9.25 0 0  9.5 0 0  9.75 0 0  10 0 0  10.25 0 0  10.5 0 0  10.75 0 0  11 0 0  11.25 0 0  11.5 0 0  11.75 0 0  12 0 0  12.25 0 0  12.5 0 0  12.75 0 0  13 0 0  13.25 0 0  13.5 0 0  13.75 0 0  14 0 0  14.25 0 0  14.5 0 0  14.75 0 0  15 0 0  15.25 0 0  15.5 0 0  15.75 0 0  16 0 0  16.25 0 0  16.5 0 0  16.75 0 0  17 0 0  17.25 0 0  17.5 0 0  17.75 0 0  18 0 0  18.25 0 0  18.5 0 0  18.75 0 0  19 0 0  19.25 0 0  19.5 0 0  19.75 0 0  20 0 0  20.25 0 0  20.5 0 0  20.75 0 0  21 0 0  21.25 0 0  21.5 0 0  21.75 0 0  22 0 0  22.25 0 0  22.5 0 0  22.75 0 0  23 0 0  23.25 0 0  23.5 0 0  23.75 0 0  24 0 0  24.25 0 0  24.5 0 0  24.75 0 0  25 0 0  0 0.25 0  0.25 0.25 0  0.5 0.25 0  0.75 0.25 0  1 0.25 0  1.25 0.25 0  1.5 0.25 0  1.75 0.25 0  2 0.25 0  2.25 0.25 0  2.5 0.25 0  2.75 0.25 0  3 0.25 0  3.25 0.25 0  3.5 0.25 0  3.75 0.25 0  4 0.25 0  4.25 0.25 0  4.5 0.25 0  4.75 0.25 0  5 0.25 0  5.25 0.25 0  5.5 0.25 0  5.75 0.25 0  6 0.25 0  6.25 0.25 0  6.5 0.25 0  6.75 0.25 0  7 0.25 0  7.25 0.25 0  7.5 0.25 0  7.75 0.25 0  8 0.25 0  8.25 0.25 0  8.5 0.25 0  8.75 0.25 0  9 0.25 0  9.25 0.25 0  9.5 0.25 0  9.75 0.25 0  10 0.25 0  10.25 0.25 0  10.5 0.25 0  10.75 0.25 0  11 0.25 0  11.25 0.25 0  11.5 0.25 0  11.75 0.25 0  12 0.25 0  12.25 0.25 0  12.5 0.25 0  12.75 0.25 0  13 0.25 0  13.25 0.25 0  13.5 0.25 0  13.75 0.25 0  14 0.25 0  14.25 0.25 0  14.5 0.25 0  14.75 0.25 0  15 0.25 0  15.25 0.25 0  15.5 0.25 0  15.75 0.25 0  16 0.25 0  16.25 0.25 0  16.5 0.25 0  16.75 0.25 0  17 0.25 0  17.25 0.25 0  17.5 0.25 0  17.75 0.25 0  18 0.25 0  18.25 0.25 0  18.5 0.25 0  18.75 0.25 0  19 0.25 0  19.25 0.25 0  19.5 0.25 0  19.75 0.25 0  20 0.25 0  20.25 0.25 0  20.5 0.25 0  20.75 0.25 0  21 0.25 0  21.25 0.25 0  21.5 0.25 0  21.75 0.25 0  22 0.25 0  22.25 0.25 0  22.5 0.25 0  22.75 0.25 0  23 0.25 0  23.25 0.25 0  23.5 0.25 0  23.75 0.25 0  24 0.25 0  24.25 0.25 0  24.5 0.25 0  24.75 0.25 0  25 0.25 0  0 0.5 0  0.25 0.5 0  0.5 0.5 0  0.75 0.5 0  1 0.5 0  1.25 0.5 0  1.5 0.5 0  1.75 0.5 0  2 0.5 0  2.25 0.5 0  2.5 0.5 0  2.75 0.5 0  3 0.5 0  3.25 0.5 0  3.5 0.5 0  3.75 0.5 0  4 0.5 0  4.25 0.5 0  4.5 0.5 0  4.75 0.5 0  5 0.5 0  5.25 0.5 0  5.5 0.5 0  5.75 0.5 0  6 0.5 0  6.25 0.5 0  6.5 0.5 0  6.75 0.5 0  7 0.5 0  7.25 0.5 0  7.5 0.5 0  7.75 0.5 0  8 0.5 0  8.25 0.5 0  8.5 0.5 0  8.75 0.5 0  9 0.5 0  9.25 0.5 0  9.5 0.5 0  9.75 0.5 0  10 0.5 0  10.25 0.5 0  10.5 0.5 0  10.75 0.5 0  11 0.5 0  11.25 0.5 0  11.5 0.5 0  11.75 0.5 0  12 0.5 0  12.25 0.5 0  12.5 0.5 0  12.75 0.5 0  13 0.5 0  13.25 0.5 0  13.5 0.5 0  13.75 0.5 0  14 0.5 0  14.25 0.5 0  14.5 0.5 0  14.75 0.5 0  15 0.5 0  15.25 0.5 0  15.5 0.5 0  15.75 0.5 0  16 0.5 0  16.25 0.5 0  16.5 0.5 0  16.75 0.5 0  17 0.5 0  17.25 0.5 0  17.5 0.5 0  17.75 0.5 0  18 0.5 0  18.25 0.5 0  18.5 0.5 0  18.75 0.5 0  19 0.5 0  19.25 0.5 0  19.5 0.5 0  19.75 0.5 0  20 0.5 0  20.25 0.5 0  20.5 0.5 0  20.75 0.5 0  21 0.5 0  21.25 0.5 0  21.5 0.5 0  21.75 0.5 0  22 0.5 0  22.25 0.5 0  22.5 0.5 0  22.75 0.5 0  23 0.5 0  23.25 0.5 0  23.5 0.5 0  23.75 0.5 0  24 0.5 0  24.25 0.5 0  24.5 0.5 0  24.75 0.5 0  25 0.5 0  0 0.75 0  0.25 0.75 0  0.5 0.75 0  0.75 0.75 0  1 0.75 0  1.25 0.75 0  1.5 0.75 0  1.75 0.75 0  2 0.75 0  2.25 0.75 0  2.5 0.75 0  2.75 0.75 0  3 0.75 0  3.25 0.75 0  3.5 0.75 0  3.75 0.75 0  4 0.75 0  4.25 0.75 0  4.5 0.75 0  4.75 0.75 0  5 0.75 0  5.25 0.75 0  5.5 0.75 0  5.75 0.75 0  6 0.75 0  6.25 0.75 0  6.5 0.75 0  6.75 0.75 0  7 0.75 0  7.25 0.75 0  7.5 0.75 0  7.75 0.75 0  8 0.75 0  8.25 0.75 0  8.5 0.75 0  8.75 0.75 0  9 0.75 0  9.25 0.75 0  9.5 0.75 0  9.75 0.75 0  10 0.75 0  10.25 0.75 0  10.5 0.75 0  10.75 0.75 0  11 0.75 0  11.25 0.75 0  11.5 0.75 0  11.75 0.75 0  12 0.75 0  12.25 0.75 0  12.5 0.75 0  12.75 0.75 0  13 0.75 0  13.25 0.75 0  13.5 0.75 0  13.75 0.75 0  14 0.75 0  14.25 0.75 0  14.5 0.75 0  14.75 0.75 0  15 0.75 0  15.25 0.75 0  15.5 0.75 0  15.75 0.75 0  16 0.75 0  16.25 0.75 0  16.5 0.75 0  16.75 0.75 0  17 0.75 0  17.25 0.75 0  17.5 0.75 0  17.75 0.75 0  18 0.75 0  18.25 0.75 0  18.5 0.75 0  18.75 0.75 0  19 0.75 0  19.25 0.75 0  19.5 0.75 0  19.75 0.75 0  20 0.75 0  20.25 0.75 0  20.5 0.75 0  20.75 0.75 0  21 0.75 0  21.25 0.75 0  21.5 0.75 0  21.75 0.75 0  22 0.75 0  22.25 0.75 0  22.5 0.75 0  22.75 0.75 0  23 0.75 0  23.25 0.75 0  23.5 0.75 0  23.75 0.75 0  24 0.75 0  24.25 0.75 0  24.5 0.75 0  24.75 0.75 0  25 0.75 0  0 1 0  0.25 1 0  0.5 1 0  0.75 1 0  1 1 0  1.25 1 0  1.5 1 0  1.75 1 0  2 1 0  2.25 1 0  2.5 1 0  2.75 1 0  3 1 0  3.25 1 0  3.5 1 0  3.75 1 0  4 1 0  4.25 1 0  4.5 1 0  4.75 1 0  5 1 0  5.25 1 0  5.5 1 0  5.75 1 0  6 1 0  6.25 1 0  6.5 1 0  6.75 1 0  7 1 0  7.25 1 0  7.5 1 0  7.75 1 0  8 1 0  8.25 1 0  8.5 1 0  8.75 1 0  9 1 0  9.25 1 0  9.5 1 0  9.75 1 0  10 1 0  10.25 1 0  10.5 1 0  10.75 1 0  11 1 0  11.25 1 0  11.5 1 0  11.75 1 0  12 1 0  12.25 1 0  12.5 1 0  12.75 1 0  13 1 0  13.25 1 0  13.5 1 0  13.75 1 0  14 1 0  14.25 1 0  14.5 1 0  14.75 1 0  15 1 0  15.25 1 0  15.5 1 0  15.75 1 0  16 1 0  16.25 1 0  16.5 1 0  16.75 1 0  17 1 0  17.25 1 0  17.5 1 0  17.75 1 0  18 1 0  18.25 1 0  18.5 1 0  18.75 1 0  19 1 0  19.25 1 0  19.5 1 0  19.75 1 0  20 1 0  20.25 1 0  20.5 1 0  20.75 1 0  21 1 0  21.25 1 0  21.5 1 0  21.75 1 0  22 1 0  22.25 1 0  22.5 1 0  22.75 1 0  23 1 0  23.25 1 0  23.5 1 0  23.75 1 0  24 1 0  24.25 1 0  24.5 1 0  24.75 1 0  25 1 0  0 1.25 0  0.25 1.25 0  0.5 1.25 0  0.75 1.25 0  1 1.25 0  1.25 1.25 0  1.5 1.25 0  1.75 1.25 0  2 1.25 0  2.25 1.25 0  2.5 1.25 0  2.75 1.25 0  3 1.25 0  3.25 1.25 0  3.5 1.25 0  3.75 1.25 0  4 1.25 0  4.25 1.25 0  4.5 1.25 0  4.75 1.25 0  5 1.25 0  5.25 1.25 0  5.5 1.25 0  5.75 1.25 0  6 1.25 0  6.25 1.25 0  6.5 1.25 0  6.75 1.25 0  7 1.25 0  7.25 1.25 0  7.5 1.25 0  7.75 1.25 0  8 1.25 0  8.25 1.25 0  8.5 1.25 0  8.75 1.25 0  9 1.25 0  9.25 1.25 0  9.5 1.25 0  9.75 1.25 0  10 1.25 0  10.25 1.25 0  10.5 1.25 0  10.75 1.25 0  11 1.25 0  11.25 1.25 0  11.5 1.25 0  11.75 1.25 0  12 1.25 0  12.25 1.25 0  12.5 1.25 0  12.75 1.25 0  13 1.25 0  13.25 1.25 0  13.5 1.25 0  13.75 1.25 0  14 1.25 0  14.25 1.25 0  14.5 1.25 0  14.75 1.25 0  15 1.25 0  15.25 1.25 0  15.5 1.25 0  15.75 1.25 0  16 1.25 0  16.25 1.25 0  16.5 1.25 0  16.75 1.25 0  17 1.25 0  17.25 1.25 0  17.5 1.25 0  17.75 1.25 0  18 1.25 0  18.25 1.25 0  18.5 1.25 0  18.75 1.25 0  19 1.25 0  19.25 1.25 0  19.5 1.25 0  19.75 1.25 0  20 1.25 0  20.25 1.25 0  20.5 1.25 0  20.75 1.25 0  21 1.25 0  21.25 1.25 0  21.5 1.25 0  21.75 1.25 0  22 1.25 0  22.25 1.25 0  22.5 1.25 0  22.75 1.25 0  23 1.25 0  23.25 1.25 0  23.5 1.25 0  23.75 1.25 0  24 1.25 0  24.25 1.25 0  24.5 1.25 0  24.75 1.25 0  25 1.25 0  0 1.5 0  0.25 1.5 0  0.5 1.5 0  0.75 1.5 0  1 1.5 0  1.25 1.5 0  1.5 1.5 0  1.75 1.5 0  2 1.5 0  2.25 1.5 0  2.5 1.5 0  2.75 1.5 0  3 1.5 0  3.25 1.5 0  3.5 1.5 0  3.75 1.5 0  4 1.5 0  4.25 1.5 0  4.5 1.5 0  4.75 1.5 0  5 1.5 0  5.25 1.5 0  5.5 1.5 0  5.75 1.5 0  6 1.5 0  6.25 1.5 0  6.5 1.5 0  6.75 1.5 0  7 1.5 0  7.25 1.5 0  7.5 1.5 0  7.75 1.5 0  8 1.5 0  8.25 1.5 0  8.5 1.5 0  8.75 1.5 0  9 1.5 0  9.25 1.5 0  9.5 1.5 0  9.75 1.5 0  10 1.5 0  10.25 1.5 0  10.5 1.5 0  10.75 1.5 0  11 1.5 0  11.25 1.5 0  11.5 1.5 0  11.75 1.5 0  12 1.5 0  12.25 1.5 0  12.5 1.5 0  12.75 1.5 0  13 1.5 0  13.25 1.5 0  13.5 1.5 0  13.75 1.5 0  14 1.5 0  14.25 1.5 0  14.5 1.5 0  14.75 1.5 0  15 1.5 0  15.25 1.5 0  15.5 1.5 0  15.75 1.5 0  16 1.5 0  16.25 1.5 0  16.5 1.5 0  16.75 1.5 0  17 1.5 0  17.25 1.5 0  17.5 1.5 0  17.75 1.5 0  18 1.5 0  18.25 1.5 0  18.5 1.5 0  18.75 1.5 0  19 1.5 0  19.25 1.5 0  19.5 1.5 0  19.75 1.5 0  20 1.5 0  20.25 1.5 0  20.5 1.5 0  20.75 1.5 0  21 1.5 0  21.25 1.5 0  21.5 1.5 0  21.75 1.5 0  22 1.5 0  22.25 1.5 0  22.5 1.5 0  22.75 1.5 0  23 1.5 0  23.25 1.5 0  23.5 1.5 0  23.75 1.5 0  24 1.5 0  24.25 1.5 0  24.5 1.5 0  24.75 1.5 0  25 1.5 0  0 1.75 0  0.25 1.75 0  0.5 1.75 0  0.75 1.75 0  1 1.75 0  1.25 1.75 0  1.5 1.75 0  1.75 1.75 0  2 1.75 0  2.25 1.75 0  2.5 1.75 0  2.75 1.75 0  3 1.75 0  3.25 1.75 0  3.5 1.75 0  3.75 1.75 0  4 1.75 0  4.25 1.75 0  4.5 1.75 0  4.75 1.75 0  5 1.75 0  5.25 1.75 0  5.5 1.75 0  5.75 1.75 0  6 1.75 0  6.25 1.75 0  6.5 1.75 0  6.75 1.75 0  7 1.75 0  7.25 1.75 0  7.5 1.75 0  7.75 1.75 0  8 1.75 0  8.25 1.75 0  8.5 1.75 0  8.75 1.75 0  9 1.75 0  9.25 1.75 0  9.5 1.75 0  9.75 1.75 0  10 1.75 0  10.25 1.75 0  10.5 1.75 0  10.75 1.75 0  11 1.75 0  11.25 1.75 0  11.5 1.75 0  11.75 1.75 0  12 1.75 0  12.25 1.75 0  12.5 1.75 0  12.75 1.75 0  13 1.75 0  13.25 1.75 0  13.5 1.75 0  13.75 1.75 0  14 1.75 0  14.25 1.75 0  14.5 1.75 0  14.75 1.75 0  15 1.75 0  15.25 1.75 0  15.5 1.75 0  15.75 1.75 0  16 1.75 0  16.25 1.75 0  16.5 1.75 0  16.75 1.75 0  17 1.75 0  17.25 1.75 0  17.5 1.75 0  17.75 1.75 0  18 1.75 0  18.25 1.75 0  18.5 1.75 0  18.75 1.75 0  19 1.75 0  19.25 1.75 0  19.5 1.75 0  19.75 1.75 0  20 1.75 0  20.25 1.75 0  20.5 1.75 0  20.75 1.75 0  21 1.75 0  21.25 1.75 0  21.5 1.75 0  21.75 1.75 0  22 1.75 0  22.25 1.75 0  22.5 1.75 0  22.75 1.75 0  23 1.75 0  23.25 1.75 0  23.5 1.75 0  23.75 1.75 0  24 1.75 0  24.25 1.75 0  24.5 1.75 0  24.75 1.75 0  25 1.75 0  0 2 0  0.25 2 0  0.5 2 0  0.75 2 0  1 2 0  1.25 2 0  1.5 2 0  1.75 2 0  2 2 0  2.25 2 0  2.5 2 0  2.75 2 0  3 2 0  3.25 2 0  3.5 2 0  3.75 2 0  4 2 0  4.25 2 0  4.5 2 0  4.75 2 0  5 2 0  5.25 2 0  5.5 2 0  5.75 2 0  6 2 0  6.25 2 0  6.5 2 0  6.75 2 0  7 2 0  7.25 2 0  7.5 2 0  7.75 2 0  8 2 0  8.25 2 0  8.5 2 0  8.75 2 0  9 2 0  9.25 2 0  9.5 2 0  9.75 2 0  10 2 0  10.25 2 0  10.5 2 0  10.75 2 0  11 2 0  11.25 2 0 
[...]
<PointData  Scalars="f_26"> 
<DataArray  type="Float64"  Name="f_26"  format="ascii">2.5186435687100725e-05  2.5178638509218153e-05  2.5161330394187519e-05  2.5133455990229535e-05  2.5094490824824751e-05  2.5044025674019371e-05  2.4981709709866837e-05  2.4907291363895603e-05  2.4820695762471037e-05  2.4722118690409377e-05  2.4612123235627721e-05  2.4491723576658984e-05  2.4362438247147744e-05  2.4226296080343272e-05  2.4085784104540239e-05  2.3943739157905318e-05  2.3803204784168612e-05  2.3667302814354953e-05  2.3539193826264855e-05  2.3422178942690747e-05  2.3319869908133566e-05  2.3236096504550718e-05  2.3174070652900721e-05  2.3134851907418906e-05  2.3116256225510095e-05  2.3113494582473616e-05  2.3121229940460472e-05  2.3135414479759394e-05  2.3153895006474877e-05  2.3176041906316788e-05  2.3202048917946587e-05  2.3232287815836994e-05  2.3266842022197976e-05  2.3305249002005380e-05  2.3346447468146832e-05  2.3388882927166387e-05  2.3430691847385158e-05  2.3469890712776114e-05  2.3504531195735694e-05  2.3532815710525321e-05  2.3553182699093108e-05  2.3564371797042647e-05  2.3565474834738259e-05  2.3555975133098100e-05  2.3535776243588299e-05  2.3505221828331545e-05  2.3465110113932522e-05  2.3416708091460985e-05  2.3361769041391036e-05  2.3302544610548859e-05  2.3241750716567398e-05  2.3182402822141467e-05  2.3127436279760546e-05  2.3079153245088732e-05  2.3038742063860784e-05  2.3006145707415890e-05  2.2980308939518279e-05  2.2959599264686717e-05  2.2942190445804460e-05  2.2926309031859253e-05  2.2910336076536764e-05  2.2892796474506266e-05  2.2872271494636506e-05  2.2847254842183062e-05  2.2815956575996830e-05  2.2776057553572961e-05  2.2724573251873990e-05  2.2658734865840775e-05  2.2582915739743900e-05  2.2524107577908743e-05  2.2522434161563630e-05  2.2591362151507016e-05  2.2713561054202362e-05  2.2867402552258342e-05  2.3039474645874305e-05  2.3222419535205217e-05  2.3411067449350850e-05  2.3600772958715826e-05  2.3787130951635516e-05  2.3966177645344904e-05  2.4134661631525795e-05  2.4290222157805525e-05  2.4431434530852134e-05  2.4557737847293032e-05  2.4669284474982521e-05  2.4766755180720844e-05  2.4851175890062389e-05  2.4923759017886003e-05  2.4985779680242771e-05  2.5038487765931760e-05  2.5083051402418058e-05  2.5120525094154058e-05  2.5151835633949037e-05  2.5177779791263438e-05  2.5199029063134570e-05  2.5216138019168204e-05  2.5229553756270892e-05  2.5239624499147605e-05  2.5246604836971220e-05  2.5250650765001176e-05  2.5251776624101498e-05  2.5174954961502216e-05  2.5168860256701479e-05  2.5151908691311307e-05  2.5124054791417889e-05  2.5085005484543115e-05  2.5034416403476954e-05  2.4971964567461756e-05  2.4897418341064544e-05  2.4810721574390270e-05  2.4712088591354494e-05  2.4602100038341779e-05  2.4481785152212267e-05  2.4352673321384328e-05  2.4216798597176635e-05  2.4076646842641754e-05  2.3935047651630214e-05  2.3795033015106875e-05  2.3659712434500407e-05  2.3532237372986079e-05  2.3415905802463125e-05  2.3314333244298578e-05  2.3231356677088762e-05  2.3170187801867302e-05  2.3131859250381790e-05  2.3114117985440576e-05  2.3112083330809892e-05  2.3120359129969251e-05  2.3134905649816702e-05  2.3153625371992469e-05  2.3175951231189446e-05  2.3202122712167246e-05  2.3232537636411404e-05  2.3267291383650914e-05  2.3305924664235172e-05  2.3347373834597896e-05  2.3390078486027591e-05  2.3432167585129031e-05  2.3471650242911791e-05  2.3506571857037681e-05  2.3535129845116627e-05  2.3555758635317622e-05  2.3567194382413889e-05  2.3568525529020910e-05  2.3559231699498386e-05  2.3539212021089514e-05  2.3508804453192133e-05  2.3468799397410768e-05  2.3420452655837603e-05  2.3365501636161189e-05  2.3306177548874725e-05  2.3245176174735294e-05  2.3185505722709087e-05  2.3130122892597957e-05  2.3081382211969348e-05  2.3040533498332452e-05  2.3007561493747519e-05  2.2981422812879867e-05  2.2960474697607320e-05  2.2942870372053755e-05  2.2926814205931985e-05  2.2910667803735453e-05  2.2892940581021334e-05  2.2872202097715798e-05  2.2846938776125655e-05  2.2815362445233691e-05  2.2775187548060837e-05  2.2723565551276650e-05  2.2658187873791928e-05  2.2584004171127720e-05  2.2526971523682314e-05  2.2525698967472631e-05  2.2594148530695499e-05  2.2715879866830953e-05  2.2869418320458284e-05  2.3041250331621414e-05  2.3223963754928809e-05  2.3412388788711659e-05  2.3601892869707010e-05  2.3788074568510966e-05  2.3966968834575947e-05  2.4135321644524503e-05  2.4290768898924497e-05  2.4431882548708265e-05  2.4558098986360871e-05  2.4669568772960452e-05  2.4766971635787493e-05  2.4851332925051371e-05  2.4923864647908670e-05  2.4985841481115408e-05  2.5038512754262819e-05  2.5083045910802853e-05  2.5120494687929807e-05  2.5151785086652939e-05  2.5177713120491799e-05  2.5198949629377034e-05  2.5216048717721393e-05  2.5229457437504839e-05  2.5239525164768965e-05  2.5246511939355025e-05  2.5250597198532075e-05  2.5251901366411742e-05  2.5146413088351807e-05  2.5140665541314452e-05  2.5123817178136533e-05  2.5095832510938153e-05  2.5056500454883625e-05  2.5005539013084982e-05  2.4942676269721933e-05  2.4867730239902060e-05  2.4780697033972909e-05  2.4681845837544004e-05  2.4571812123313076e-05  2.4451675493684270e-05  2.4323005855922207e-05  2.4187862674760973e-05  2.4048738357224639e-05  2.3908449525564838e-05  2.3770000347369382e-05  2.3636470124411516e-05  2.3510996290523121e-05  2.3396895205108543e-05  2.3297828775211942e-05  2.3217653831762066e-05  2.3159477941359811e-05  2.3124059165841189e-05  2.3108805950542818e-05  2.3108631112471236e-05  2.3118156986539041e-05  2.3133513478959381e-05  2.3152799644186941e-05  2.3175602062261137e-05  2.3202259206692720e-05  2.3233223863196080e-05  2.3268613767264184e-05  2.3307967930500198e-05  2.3350205055444804e-05  2.3393739581269576e-05  2.3436674956373402e-05  2.3476998560754612e-05  2.3512739023990195e-05  2.3542081306351418e-05  2.3563450368439575e-05  2.3575574533673814e-05  2.3577534844842729e-05  2.3568802853805903e-05  2.3549267791201385e-05  2.3519254473312254e-05  2.3479534940751675e-05  2.3431338769826569e-05  2.3376366645343051e-05  2.3316802719648810e-05  2.3255294104950480e-05  2.3194821657194782e-05  2.3138367796557097e-05  2.3088381199616357e-05  2.3046248209435304e-05  2.3012079339292771e-05  2.2984908051846341e-05  2.2963113610460778e-05  2.2944830596283100e-05  2.2928223036615606e-05  2.2911605811439274e-05  2.2893444361451392e-05  2.2872270887934856e-05  2.2846542251474159e-05  2.2814450413950364e-05  2.2773710695659590e-05  2.2721539086424356e-05  2.2655907189366975e-05  2.2582613762511079e-05  2.2528195064017153e-05  2.2529873915762737e-05  2.2600029953565416e-05  2.2722226759303307e-05  2.2875599924331926e-05  2.3047014543562255e-05  2.3229200306439571e-05  2.3417041103131776e-05  2.3605936583034013e-05  2.3791511185165540e-05  2.3969821982567543e-05  2.4137632679081383e-05  2.4292591485396547e-05  2.4433277019817799e-05  2.4559127343473477e-05  2.4670290830013486e-05  2.4767442424235460e-05  2.4851601231365752e-05  2.4923972442978164e-05  2.4985823981352705e-05  2.5038398884519971e-05  2.5082858989076041e-05  2.5120253204096006e-05  2.5151503494570086e-05  2.5177402603761317e-05  2.5198618840642526e-05  2.5215704542513728e-05  2.5229105925262751e-05  2.5239172952465924e-05  2.5246168746215794e-05  2.5250279267278885e-05  2.5251625415435971e-05  2.5099338165265082e-05  2.5093605350629807e-05  2.5076629115927293e-05  2.5048324244506185e-05  2.5008508352392728e-05  2.4956953219332924e-05  2.4893452154487785e-05  2.4817897802920108e-05  2.4730369328689724e-05  2.4631224523604954e-05  2.4521187628254552e-05  2.4401419532372728e-05  2.4273555022273003e-05  2.4139693477685406e-05  2.4002336338893699e-05  2.3864278060144189e-05  2.3728479055009820e-05  2.3597976559274226e-05  2.3475899808002229e-05  2.3365616727853595e-05  2.3270880183653876e-05  2.3195557743034494e-05  2.3142507783493882e-05  2.3111940184036540e-05  2.3100673375561212e-05  2.3103342856386012e-05  2.3114699170221047e-05  2.3131212750942297e-05  2.3151317782434196e-05  2.3174840244503236e-05  2.3202264763560159e-05  2.3234122241509238e-05  2.3270558969218252e-05  2.3311105140555737e-05  2.3354645794458068e-05  2.3399550903698047e-05  2.3443880461794441e-05  2.3485585887442958e-05  2.3522668746697744e-05  2.3553294361996749e-05  2.3575873125868576e-05  2.3589121606466569e-05  2.3592109967739000e-05  2.3584298032229402e-05  2.3565560704908287e-05  2.3536203788962166e-05  2.3496972759158638e-05  2.3449059128759613e-05  2.3394109665715897e-05  2.3334237417833366e-05  2.3272010917179382e-05  2.3210355595107762e-05  2.3152270705776319e-05  2.3100329000606160e-05  2.3056123696310299e-05  2.3019975398785356e-05  2.2991059807858641e-05  2.2967810384626814e-05  2.2948345850082298e-05  2.2930773622736600e-05  2.2913336180978806e-05  2.2894426231098418e-05  2.2872509607301389e-05  2.2845984749358458e-05  2.2812994662995280e-05  2.2771232144552001e-05  2.2717985941463051e-05  2.2651692323189694e-05  2.2579603131074352e-05  2.2529332484343274e-05  2.2536037242378915e-05  2.2609356229691419e-05  2.2732582281556632e-05  2.2885812640610842e-05  2.3056600574995023e-05  2.3237949451807083e-05  2.3424841015364366e-05  2.3612727591984671e-05  2.3797278481348651e-05  2.3974592632192951e-05  2.4141469303070944e-05  2.4295582809720257e-05  2.4435527192303236e-05  2.4560745919933004e-05  2.4671384709169304e-05  2.4768110247920362e-05  2.4851930159886312e-05  2.4924036867446200e-05  2.4985685618020981e-05  2.5038107730948152e-05  2.5082454729072625e-05  2.5119766772168723e-05  2.5150958621383064e-05  2.5176817251564160e-05  2.5198006502953830e-05  2.5215075431025624e-05  2.5228468099057169e-05  2.5238533425572401e-05  2.5245534369466729e-05  2.5249656145123381e-05  2.5251012710537754e-05  2.5032594931085634e-05  2.5026784078457662e-05  2.5009543203150230e-05  2.4980772743215778e-05  2.4940320340763198e-05  2.4888017967854838e-05  2.4823740509629374e-05  2.4747479073489333e-05  2.4659424189804334e-05  2.4560052172625095e-05  2.4450204532695496e-05  2.4331147327085672e-05  2.4204596380894668e-05  2.4072697047256760e-05  2.3937955042414447e-05  2.3803129803653424e-05  2.3671125628028651e-05  2.3544938522212156e-05  2.3427716053032448e-05  2.3322932012788809e-05  2.3234472314395515e-05  2.3166153122490485e-05  2.3120350179936428e-05  2.3096402933127836e-05  2.3090336652563883e-05  2.3096540991572785e-05  2.3110074717268008e-05  2.3127931384799503e-05  2.3149000279531472e-05  2.3173411519471362e-05  2.3201828701803309e-05  2.3234875750952555e-05  2.3272729337382839e-05  2.3314901534848115e-05  2.3360226719407703e-05  2.3407010782270996e-05  2.3453252455837933e-05  2.3496853349354138e-05  2.3535778165264997e-05  2.3568165936405952e-05  2.3592407931210306e-05  2.3607205630046339e-05  2.3611615546307794e-05  2.3605083050289592e-05  2.3587465626971401e-05  2.3559046204844691e-05  2.3520538562019547e-05  2.3473088885648889e-05  2.3418279028651416e-05  2.3358133638665518e-05  2.3295116501306523e-05  2.3232063916907449e-05  2.3171962704668756e-05  2.3117508535908037e-05  2.3070546058153872e-05  2.3031683490446946e-05  2.3000314025422649e-05  2.2974973102450884e-05  2.2953779995385201e-05  2.2934778250483630e-05  2.2916116964478842e-05  2.2896089279005354e-05  2.2873066721639928e-05  2.2845362790011976e-05  2.2811050050078671e-05  2.2767795805839847e-05  2.2713023057632979e-05  2.2645940006040618e-05  2.2575842617407096e-05  2.2531422456763245e-05  2.2544829885277194e-05  2.2622269073384543e-05  2.2746810988321798e-05  2.2899818254881240e-05  2.3069736879743465e-05  2.3249929012377657e-05  2.3435506847688875e-05  2.3621993745540073e-05  2.3805121021524172e-05  2.3981046813865724e-05  2.4146621361564424e-05  2.4299556816435024e-05  2.4438469836945851e-05  2.4562812058809553e-05  2.4672725622647391e-05  2.4768865439568131e-05  2.4852222621537993e-05  2.4923971194445264e-05  2.4985348163925359e-05  2.5037568030048787e-05  2.5081767569795774e-05  2.5118974488146809e-05  2.5150093331529098e-05  2.5175902907217524e-05  2.5197060687210715e-05  2.5214110906140187e-05  2.5227494110080919e-05  2.5237556720490128e-05  2.5244559733636635e-05  2.5248685934076716e-05  2.5250044814714467e-05  2.4945066179732687e-05  2.4939157576901075e-05  2.4921592347568057e-05  2.4892285521410285e-05  2.4851130936637400e-05  2.4798036242342076e-05  2.4732977242662277e-05  2.4656066639079921e-05  2.4567631350218711e-05  2.4468290503603317e-05  2.4359023529125803e-05  2.4241215822198794e-05  2.4116669679321126e-05  2.3987572154228905e-05  2.3856420964266040e-05  2.3725927413914389e-05  2.3598938672508252e-05  2.3478433626318915e-05  2.3367637943931349e-05  2.3270209506263503e-05  2.3190179352807640e-05  2.3131137869687291e-05  2.3094609700206124e-05  2.3078713953550182e-05  2.3078603286252373e-05  2.3088613647728439e-05  2.3104369311886869e-05  2.3123560431473187e-05  2.3145612636066209e-05  2.3170992718775388e-05  2.3200557309445220e-05  2.3235029181083396e-05  2.3274613407857309e-05  2.3318793197125745e-05  2.3366334719705166e-05  2.3415460077682618e-05  2.3464089203221322e-05  2.3510060562672136e-05  2.3551292806937922e-05  2.3585892637470313e-05  2.3612228231008193e-05  2.3628983253808890e-05  2.3635198494989112e-05  2.3630303045121460e-05  2.3614135128258424e-05  2.3586952812971003e-05  2.3549435984446687e-05  2.3502682863280623e-05  2.3448206335562880e-05  2.3387934501497403e-05  2.3324208990294762e-05  2.3259744575549093e-05  2.3197470204661253e-05  2.3140166608635730e-05  2.3089932700777088e-05  2.3047719670396720e-05  2.3013217933466183e-05  2.2985131225173713e-05  2.2961615501261594e-05  2.2940658369118301e-05  2.2920304238471053e-05  2.2898725262460870e-05  2.2874174043498548e-05  2.2844856514710133e-05  2.2808762377426101e-05  2.2763551760405356e-05  2.2706902318718444e-05  2.2639206339561673e-05  2.2572262681941317e-05  2.2535370165661049e-05  2.2556697537134948e-05  2.2638759552235299e-05  2.2764662229135746e-05  2.2917273791506429e-05  2.3086049715518712e-05  2.3264757314911180e-05  2.3448660936278384e-05  2.3633370587886782e-05  2.3814695098824456e-05  2.3988866954100250e-05  2.4152800406719478e-05  2.4304254956533665e-05  2.4441875301099242e-05  2.4565122786058423e-05  2.4674134386569667e-05  2.4769549488688172e-05  2.4852337740806881e-05  2.4923649401776455e-05  2.4984698003681432e-05  2.5036676473430487e-05  2.5080702729648029e-05  2.5117788591218734e-05  2.5148825601921223e-05  2.5174582175711213e-05  2.5195707649542814e-05  2.5212740014909473e-05  2.5226115105493359e-05  2.5236175786738603e-05  2.5243180219391990e-05  2.5247308563670058e-05  2.5248667591112931e-05  2.4835749332855512e-05  2.4829759833922275e-05  2.4811879570674629e-05  2.4782058009661576e-05  2.4740253197712329e-05  2.4686466596809913e-05  2.4620794511371592e-05  2.4543491726665844e-05  2.4455041106272265e-05  2.4356220728017534e-05  2.4248158090022934e-05  2.4132359999830448e-05  2.4010708275793547e-05  2.3885417062727960e-05  2.3758960283838834e-05  2.3633997696915496e-05  2.3513342552498262e-05  2.3400020054379130e-05  2.3297439264946005e-05  2.3209524309103018e-05  2.3140359821072720e-05  2.3092933171152413e-05  2.3067402473355293e-05  2.3060393351518210e-05  2.3066350285078821e-05  2.3079938532204228e-05  2.3097641193270282e-05  2.3117965706791107e-05  2.3140896251948659e-05  2.3167231520987759e-05  2.3198016724369621e-05  2.3234071964618765e-05  2.3275627034065102e-05  2.3322125896024344e-05  2.3372249597434845e-05  2.3424117200383301e-05  2.3475552736180243e-05  2.3524318713069828e-05  2.3568279097222366e-05  2.3605502746360417e-05  2.3634331270656192e-05  2.3653428286631449e-05  2.3661817332947612e-05  2.3658910072428346e-05  2.3644524545357182e-05  2.3618893316620983e-05  2.3582662294607593e-05  2.3536882597436416e-05  2.3482999925620335e-05  2.3422846760763805e-05  2.3358637024418786e-05  2.3292941544076398e-05  2.3228582962479276e-05  2.3168361312044342e-05  2.3114583923148606e-05  2.3068557802055851e-05  2.3030337209934605e-05  2.2998872799748967e-05  2.2972414814956293e-05  2.2948922961133157e-05  2.2926340603462264e-05  2.2902707311510189e-05  2.2876138854139418e-05  2.2844718037090323e-05  2.2806352458677432e-05  2.2758742958991371e-05  2.2700022178804914e-05  2.2632249110731595e-05  2.2569904196510207e-05  2.2541998138560851e-05  2.2571921553565922e-05  2.2658675565123800e-05  2.2785771020540453e-05  2.2937734317465067e-05  2.3105068068450534e-05  2.3281958873108535e-05  2.3463835610999251e-05  2.3646407911248562e-05  2.3825575897888439e-05  2.3997659361237292e-05  2.4159647125148830e-05  2.4309353203533831e-05  2.4445453835950039e-05  2.4567420268033106e-05  2.4675381928241332e-05  2.4769958606122239e-05  2.4852093549683793e-05  2.4922908105605368e-05  2.4983587432653384e-05  2.5035298495984244e-05  2.5079136596542252e-05  2.5116094552812813e-05  2.5147048389702843e-05  2.5172754129794302e-05  2.5193851402343173e-05  2.5210870716731386e-05  2.5224242212774175e-05  2.5234304442010260e-05  2.5241312255283239e-05  2.5245443206426085e-05  2.5246802094061151e-05  2.4704005363008702e-05  2.4697979753281801e-05  2.4679863613657802e-05  2.4649655710246961e-05  2.4607394313353890e-05  2.4553191151084717e-05  2.4487279296323426e-05  2.4410070309909413e-05  2.4322214045153728e-05  2.4224652636506497e-05  2.4118658888467510e-05  2.4005849506286579e-05  2.3888166907798606e-05  2.3767832498251062e-05  2.3647290065878983e-05  2.3529170662918735e-05  2.3416320388287729e-05  2.3311936281517419e-05  2.3219754452321972e-05  2.3143969200123480e-05  2.3088378653520837e-05  2.3054704310088437e-05  2.3041185595959034e-05  2.3042981657242080e-05  2.3054349108404338e-05  2.3070799189500596e-05  2.3089904744977795e-05  2.3111008194446813e-05  2.3134606438736043e-05  2.3161792083478049e-05  2.3193780877739284e-05  2.3231485416253103e-05  2.3275158365033069e-05  2.3324197359088540e-05  2.3377183911409807e-05  2.3432116085082626e-05  2.3486705496658142e-05  2.3538626243325498e-05  2.3585679293700569e-05  2.3625890451545217e-05  2.3657571570406128e-05  2.3679364268523472e-05  2.3690273630273657e-05  2.3689693136367268e-05  2.3677420226297970e-05  2.3653662008020043e-05  2.3619031380786968e-05  2.3574535059407108e-05  2.3521556839082501e-05  2.3461841150425318e-05  2.3397480004982447e-05  2.3330893261790743e-05  2.3264760773318640e-05  2.3201828546169215e-05  2.3144527571062548e-05  2.3094477983796209e-05  2.3052126523384159e-05  2.3016744004867878e-05  2.2986747956645451e-05  2.2960119376566436e-05  2.2934723436161858e-05  2.2908470533168376e-05  2.2879333616994967e-05  2.2845269659837963e-05  2.2804125548965034e-05  2.2753735785236911e-05  2.2692981939692208e-05  2.2626047401317551e-05  2.2569856796098066e-05  2.2551974112320888e-05  2.2590586293080324e-05  2.2681714418447075e-05  2.2809659885058198e-05  2.2960658494490432e-05  2.3126231039416181e-05  2.3300972686337857e-05  2.3480481978295567e-05  2.3660578840045595e-05  2.3837266653700902e-05  2.4006963152508402e-05  2.4166739720916535e-05  2.4314469636008340e-05  2.4448862205870286e-05  2.4569397363479928e-05  2.4676193776181640e-05  2.4769847209938691e-05  2.4851269569117885e-05  2.4921548359200574e-05  2.4981835800452655e-05  2.5033268885832913e-05  2.5076916913188674e-05  2.5113750929592208e-05  2.5144629226497195e-05  2.5170293696654427e-05  2.5191372913939786e-05  2.5208388870684517e-05  2.5221765231155956e-05  2.5231835677048299e-05  2.5238851436370225e-05  2.5242987437182862e-05  2.5244346766257538e-05  2.4549882994924061e-05  2.4543889516669021e-05  2.4525687844539624e-05  2.4495337241326362e-05  2.4452968052014095e-05  2.4398813576950444e-05  2.4333252948685620e-05  2.4256859888182220e-05  2.4170450629237305e-05  2.4075122961541610e-05  2.3972277998125307e-05  2.3863618345909647e-05  2.3751123343248243e-05  2.3637013747859761e-05  2.3523727257962715e-05  2.3413938076396578e-05  2.3310668957774485e-05  2.3217485025625252e-05  2.3138544415866691e-05  2.3078032588289534e-05  2.3038685442791643e-05  2.3020085284832961e