<?xml version="1.0"?>
<VTKFile type="UnstructuredGrid"  version="0.1"  >
<UnstructuredGrid>
<Piece  NumberOfPoints="10201" NumberOfCells="20000">
<Points>
<DataArray  type="Float64"  NumberOfComponents="3"  format="ascii">0 0 0  0.25 0 0  0.5 0 0  0.75 0 0  1 0 0  1.25 0 0  1.5 0 0  1.75 0 0  2 0 0  2.25 0 0  2.5 0 0  2.75 0 0  3 0 0  3.25 0 0  3.5 0 0  3.75 0 0  4 0 0  4.25 0 0  4.5 0 0  4.75 0 0  5 0 0  5.25 0 0  5.5 0 0  5.75 0 0  6 0 0  6.25 0 0  6.5 0 0  6.75 0 0  7 0 0  7.25 0 0  7.5 0 0  7.75 0 0  8 0 0  8.25 0 0  8.5 0 0  8.75 0 0  9 0 0  9.25 0 0  9.5 0 0  9.75 0 0  10 0 0  10.25 0 0  10.5 0 0  10.75 0 0  11 0 0  11.25 0 0  11.5 0 0  11.75 0 0  12 0 0  12.25 0 0  12.5 0 0  12.75 0 0  13 0 0  13.25 0 0  13.5 0 0  13.75 0 0  14 0 0  14.25 0 0  14.5 0 0  14.75 0 0  15 0 0  15.25 0 0  15.5 0 0  15.75 0 0  16 0 0  16.25 0 0  16.5 0 0  16.75 0 0  17 0 0  17.25 0 0  17.5 0 0  17.75 0 0  18 0 0  18.25 0 0  18.5 0 0  18.75 0 0  19 0 0  19.25 0 0  19.5 0 0  19.75 0 0  20 0 0  20.25 0 0  20.5 0 0  20.75 0 0  21 0 0  21.25 0 0  21.5 0 0  21.75 0 0  22 0 0  22.25 0 0  22.5 0 0  22.75 0 0  23 0 0  23.25 0 0  23.5 0 0  23.75 0 0  24 0 0  24.25 0 0  24.5 0 0  24.75 0 0  25 0 0  0 0.25 0  0.25 0.25 0  0.5 0.25 0  0.75 0.25 0  1 0.25 0  1.25 0.25 0  1.5 0.25 0  1.75 0.25 0  2 0.25 0  2.25 0.25 0  2.5 0.25 0  2.75 0.25 0  3 0.25 0  3.25 0.25 0  3.5 0.25 0  3.75 0.25 0  4 0.25 0  4.25 0.25 0  4.5 0.25 0  4.75 0.25 0  5 0.25 0  5.25 0.25 0  5.5 0.25 0  5.75 0.25 0  6 0.25 0  6.25 0.25 0  6.5 0.25 0  6.75 0.25 0  7 0.25 0  7.25 0.25 0  7.5 0.25 0  7.75 0.25 0  8 0.25 0  8.25 0.25 0  8.5 0.25 0  8.75 0.25 0  9 0.25 0  9.25 0.25 0  9.5 0.25 0  9.75 0.25 0  10 0.25 0  10.25 0.25 0  10.5 0.25 0  10.75 0.25 0  11 0.25 0  11.25 0.25 0  11.5 0.25 0  11.75 0.25 0  12 0.25 0  12.25 0.25 0  12.5 0.25 0  12.75 0.25 0  13 0.25 0  13.25 0.25 0  13.5 0.25 0  13.75 0.25 0  14 0.25 0  14.25 0.25 0  14.5 0.25 0  14.75 0.25 0  15 0.25 0  15.25 0.25 0  15.5 0.25 0  15.75 0.25 0  16 0.25 0  16.25 0.25 0  16.5 0.25 0  16.75 0.25 0  17 0.25 0  17.25 0.25 0  17.5 0.25 0  17.75 0.25 0  18 0.25 0  18.25 0.25 0  18.5 0.25 0  18.75 0.25 0  19 0.25 0  19.25 0.25 0  19.5 0.25 0  19.75 0.25 0  20 0.25 0  20.25 0.25 0  20.5 0.25 0  20.75 0.25 0  21 0.25 0  21.25 0.25 0  21.5 0.25 0  21.75 0.25 0  22 0.25 0  22.25 0.25 0  22.5 0.25 0  22.75 0.25 0  23 0.25 0  23.25 0.25 0  23.5 0.25 0  23.75 0.25 0  24 0.25 0  24.25 0.25 0  24.5 0.25 0  24.75 0.25 0  25 0.25 0  0 0.5 0  0.25 0.5 0  0.5 0.5 0  0.75 0.5 0  1 0.5 0  1.25 0.5 0  1.5 0.5 0  1.75 0.5 0  2 0.5 0  2.25 0.5 0  2.5 0.5 0  2.75 0.5 0  3 0.5 0  3.25 0.5 0  3.5 0.5 0  3.75 0.5 0  4 0.5 0  4.25 0.5 0  4.5 0.5 0  4.75 0.5 0  5 0.5 0  5.25 0.5 0  5.5 0.5 0  5.75 0.5 0  6 0.5 0  6.25 0.5 0  6.5 0.5 0  6.75 0.5 0  7 0.5 0  7.25 0.5 0  7.5 0.5 0  7.75 0.5 0  8 0.5 0  8.25 0.5 0  8.5 0.5 0  8.75 0.5 0  9 0.5 0  9.25 0.5 0  9.5 0.5 0  9.75 0.5 0  10 0.5 0  10.25 0.5 0  10.5 0.5 0  10.75 0.5 0  11 0.5 0  11.25 0.5 0  11.5 0.5 0  11.75 0.5 0  12 0.5 0  12.25 0.5 0  12.5 0.5 0  12.75 0.5 0  13 0.5 0  13.25 0.5 0  13.5 0.5 0  13.75 0.5 0  14 0.5 0  14.25 0.5 0  14.5 0.5 0  14.75 0.5 0  15 0.5 0  15.25 0.5 0  15.5 0.5 0  15.75 0.5 0  16 0.5 0  16.25 0.5 0  16.5 0.5 0  16.75 0.5 0  17 0.5 0  17.25 0.5 0  17.5 0.5 0  17.75 0.5 0  18 0.5 0  18.25 0.5 0  18.5 0.5 0  18.75 0.5 0  19 0.5 0  19.25 0.5 0  19.5 0.5 0  19.75 0.5 0  20 0.5 0  20.25 0.5 0  20.5 0.5 0  20.75 0.5 0  21 0.5 0  21.25 0.5 0  21.5 0.5 0  21.75 0.5 0  22 0.5 0  22.25 0.5 0  22.5 0.5 0  22.75 0.5 0  23 0.5 0  23.25 0.5 0  23.5 0.5 0  23.75 0.5 0  24 0.5 0  24.25 0.5 0  24.5 0.5 0  24.75 0.5 0  25 0.5 0  0 0.75 0  0.25 0.75 0  0.5 0.75 0  0.75 0.75 0  1 0.75 0  1.25 0.75 0  1.5 0.75 0  1.75 0.75 0  2 0.75 0  2.25 0.75 0  2.5 0.75 0  2.75 0.75 0  3 0.75 0  3.25 0.75 0  3.5 0.75 0  3.75 0.75 0  4 0.75 0  4.25 0.75 0  4.5 0.75 0  4.75 0.75 0  5 0.75 0  5.25 0.75 0  5.5 0.75 0  5.75 0.75 0  6 0.75 0  6.25 0.75 0  6.5 0.75 0  6.75 0.75 0  7 0.75 0  7.25 0.75 0  7.5 0.75 0  7.75 0.75 0  8 0.75 0  8.25 0.75 0  8.5 0.75 0  8.75 0.75 0  9 0.75 0  9.25 0.75 0  9.5 0.75 0  9.75 0.75 0  10 0.75 0  10.25 0.75 0  10.5 0.75 0  10.75 0.75 0  11 0.75 0  11.25 0.75 0  11.5 0.75 0  11.75 0.75 0  12 0.75 0  12.25 0.75 0  12.5 0.75 0  12.75 0.75 0  13 0.75 0  13.25 0.75 0  13.5 0.75 0  13.75 0.75 0  14 0.75 0  14.25 0.75 0  14.5 0.75 0  14.75 0.75 0  15 0.75 0  15.25 0.75 0  15.5 0.75 0  15.75 0.75 0  16 0.75 0  16.25 0.75 0  16.5 0.75 0  16.75 0.75 0  17 0.75 0  17.25 0.75 0  17.5 0.75 0  17.75 0.75 0  18 0.75 0  18.25 0.75 0  18.5 0.75 0  18.75 0.75 0  19 0.75 0  19.25 0.75 0  19.5 0.75 0  19.75 0.75 0  20 0.75 0  20.25 0.75 0  20.5 0.75 0  20.75 0.75 0  21 0.75 0  21.25 0.75 0  21.5 0.75 0  21.75 0.75 0  22 0.75 0  22.25 0.75 0  22.5 0.75 0  22.75 0.75 0  23 0.75 0  23.25 0.75 0  23.5 0.75 0  23.75 0.75 0  24 0.75 0  24.25 0.75 0  24.5 0.75 0  24.75 0.75 0  25 0.75 0  0 1 0  0.25 1 0  0.5 1 0  0.75 1 0  1 1 0  1.25 1 0  1.5 1 0  1.75 1 0  2 1 0  2.25 1 0  2.5 1 0  2.75 1 0  3 1 0  3.25 1 0  3.5 1 0  3.75 1 0  4 1 0  4.25 1 0  4.5 1 0  4.75 1 0  5 1 0  5.25 1 0  5.5 1 0  5.75 1 0  6 1 0  6.25 1 0  6.5 1 0  6.75 1 0  7 1 0  7.25 1 0  7.5 1 0  7.75 1 0  8 1 0  8.25 1 0  8.5 1 0  8.75 1 0  9 1 0  9.25 1 0  9.5 1 0  9.75 1 0  10 1 0  10.25 1 0  10.5 1 0  10.75 1 0  11 1 0  11.25 1 0  11.5 1 0  11.75 1 0  12 1 0  12.25 1 0  12.5 1 0  12.75 1 0  13 1 0  13.25 1 0  13.5 1 0  13.75 1 0  14 1 0  14.25 1 0  14.5 1 0  14.75 1 0  15 1 0  15.25 1 0  15.5 1 0  15.75 1 0  16 1 0  16.25 1 0  16.5 1 0  16.75 1 0  17 1 0  17.25 1 0  17.5 1 0  17.75 1 0  18 1 0  18.25 1 0  18.5 1 0  18.75 1 0  19 1 0  19.25 1 0  19.5 1 0  19.75 1 0  20 1 0  20.25 1 0  20.5 1 0  20.75 1 0  21 1 0  21.25 1 0  21.5 1 0  21.75 1 0  22 1 0  22.25 1 0  22.5 1 0  22.75 1 0  23 1 0  23.25 1 0  23.5 1 0  23.75 1 0  24 1 0  24.25 1 0  24.5 1 0  24.75 1 0  25 1 0  0 1.25 0  0.25 1.25 0  0.5 1.25 0  0.75 1.25 0  1 1.25 0  1.25 1.25 0  1.5 1.25 0  1.75 1.25 0  2 1.25 0  2.25 1.25 0  2.5 1.25 0  2.75 1.25 0  3 1.25 0  3.25 1.25 0  3.5 1.25 0  3.75 1.25 0  4 1.25 0  4.25 1.25 0  4.5 1.25 0  4.75 1.25 0  5 1.25 0  5.25 1.25 0  5.5 1.25 0  5.75 1.25 0  6 1.25 0  6.25 1.25 0  6.5 1.25 0  6.75 1.25 0  7 1.25 0  7.25 1.25 0  7.5 1.25 0  7.75 1.25 0  8 1.25 0  8.25 1.25 0  8.5 1.25 0  8.75 1.25 0  9 1.25 0  9.25 1.25 0  9.5 1.25 0  9.75 1.25 0  10 1.25 0  10.25 1.25 0  10.5 1.25 0  10.75 1.25 0  11 1.25 0  11.25 1.25 0  11.5 1.25 0  11.75 1.25 0  12 1.25 0  12.25 1.25 0  12.5 1.25 0  12.75 1.25 0  13 1.25 0  13.25 1.25 0  13.5 1.25 0  13.75 1.25 0  14 1.25 0  14.25 1.25 0  14.5 1.25 0  14.75 1.25 0  15 1.25 0  15.25 1.25 0  15.5 1.25 0  15.75 1.25 0  16 1.25 0  16.25 1.25 0  16.5 1.25 0  16.75 1.25 0  17 1.25 0  17.25 1.25 0  17.5 1.25 0  17.75 1.25 0  18 1.25 0  18.25 1.25 0  18.5 1.25 0  18.75 1.25 0  19 1.25 0  19.25 1.25 0  19.5 1.25 0  19.75 1.25 0  20 1.25 0  20.25 1.25 0  20.5 1.25 0  20.75 1.25 0  21 1.25 0  21.25 1.25 0  21.5 1.25 0  21.75 1.25 0  22 1.25 0  22.25 1.25 0  22.5 1.25 0  22.75 1.25 0  23 1.25 0  23.25 1.25 0  23.5 1.25 0  23.75 1.25 0  24 1.25 0  24.25 1.25 0  24.5 1.25 0  24.75 1.25 0  25 1.25 0  0 1.5 0  0.25 1.5 0  0.5 1.5 0  0.75 1.5 0  1 1.5 0  1.25 1.5 0  1.5 1.5 0  1.75 1.5 0  2 1.5 0  2.25 1.5 0  2.5 1.5 0  2.75 1.5 0  3 1.5 0  3.25 1.5 0  3.5 1.5 0  3.75 1.5 0  4 1.5 0  4.25 1.5 0  4.5 1.5 0  4.75 1.5 0  5 1.5 0  5.25 1.5 0  5.5 1.5 0  5.75 1.5 0  6 1.5 0  6.25 1.5 0  6.5 1.5 0  6.75 1.5 0  7 1.5 0  7.25 1.5 0  7.5 1.5 0  7.75 1.5 0  8 1.5 0  8.25 1.5 0  8.5 1.5 0  8.75 1.5 0  9 1.5 0  9.25 1.5 0  9.5 1.5 0  9.75 1.5 0  10 1.5 0  10.25 1.5 0  10.5 1.5 0  10.75 1.5 0  11 1.5 0  11.25 1.5 0  11.5 1.5 0  11.75 1.5 0  12 1.5 0  12.25 1.5 0  12.5 1.5 0  12.75 1.5 0  13 1.5 0  13.25 1.5 0  13.5 1.5 0  13.75 1.5 0  14 1.5 0  14.25 1.5 0  14.5 1.5 0  14.75 1.5 0  15 1.5 0  15.25 1.5 0  15.5 1.5 0  15.75 1.5 0  16 1.5 0  16.25 1.5 0  16.5 1.5 0  16.75 1.5 0  17 1.5 0  17.25 1.5 0  17.5 1.5 0  17.75 1.5 0  18 1.5 0  18.25 1.5 0  18.5 1.5 0  18.75 1.5 0  19 1.5 0  19.25 1.5 0  19.5 1.5 0  19.75 1.5 0  20 1.5 0  20.25 1.5 0  20.5 1.5 0  20.75 1.5 0  21 1.5 0  21.25 1.5 0  21.5 1.5 0  21.75 1.5 0  22 1.5 0  22.25 1.5 0  22.5 1.5 0  22.75 1.5 0  23 1.5 0  23.25 1.5 0  23.5 1.5 0  23.75 1.5 0  24 1.5 0  24.25 1.5 0  24.5 1.5 0  24.75 1.5 0  25 1.5 0  0 1.75 0  0.25 1.75 0  0.5 1.75 0  0.75 1.75 0  1 1.75 0  1.25 1.75 0  1.5 1.75 0  1.75 1.75 0  2 1.75 0  2.25 1.75 0  2.5 1.75 0  2.75 1.75 0  3 1.75 0  3.25 1.75 0  3.5 1.75 0  3.75 1.75 0  4 1.75 0  4.25 1.75 0  4.5 1.75 0  4.75 1.75 0  5 1.75 0  5.25 1.75 0  5.5 1.75 0  5.75 1.75 0  6 1.75 0  6.25 1.75 0  6.5 1.75 0  6.75 1.75 0  7 1.75 0  7.25 1.75 0  7.5 1.75 0  7.75 1.75 0  8 1.75 0  8.25 1.75 0  8.5 1.75 0  8.75 1.75 0  9 1.75 0  9.25 1.75 0  9.5 1.75 0  9.75 1.75 0  10 1.75 0  10.25 1.75 0  10.5 1.75 0  10.75 1.75 0  11 1.75 0  11.25 1.75 0  11.5 1.75 0  11.75 1.75 0  12 1.75 0  12.25 1.75 0  12.5 1.75 0  12.75 1.75 0  13 1.75 0  13.25 1.75 0  13.5 1.75 0  13.75 1.75 0  14 1.75 0  14.25 1.75 0  14.5 1.75 0  14.75 1.75 0  15 1.75 0  15.25 1.75 0  15.5 1.75 0  15.75 1.75 0  16 1.75 0  16.25 1.75 0  16.5 1.75 0  16.75 1.75 0  17 1.75 0  17.25 1.75 0  17.5 1.75 0  17.75 1.75 0  18 1.75 0  18.25 1.75 0  18.5 1.75 0  18.75 1.75 0  19 1.75 0  19.25 1.75 0  19.5 1.75 0  19.75 1.75 0  20 1.75 0  20.25 1.75 0  20.5 1.75 0  20.75 1.75 0  21 1.75 0  21.25 1.75 0  21.5 1.75 0  21.75 1.75 0  22 1.75 0  22.25 1.75 0  22.5 1.75 0  22.75 1.75 0  23 1.75 0  23.25 1.75 0  23.5 1.75 0  23.75 1.75 0  24 1.75 0  24.25 1.75 0  24.5 1.75 0  24.75 1.75 0  25 1.75 0  0 2 0  0.25 2 0  0.5 2 0  0.75 2 0  1 2 0  1.25 2 0  1.5 2 0  1.75 2 0  2 2 0  2.25 2 0  2.5 2 0  2.75 2 0  3 2 0  3.25 2 0  3.5 2 0  3.75 2 0  4 2 0  4.25 2 0  4.5 2 0  4.75 2 0  5 2 0  5.25 2 0  5.5 2 0  5.75 2 0  6 2 0  6.25 2 0  6.5 2 0  6.75 2 0  7 2 0  7.25 2 0  7.5 2 0  7.75 2 0  8 2 0  8.25 2 0  8.5 2 0  8.75 2 0  9 2 0  9.25 2 0  9.5 2 0  9.75 2 0  10 2 0  10.25 2 0  10.5 2 0  10.75 2 0  11 2 0  11.25 2 0 
[...]
<PointData  Scalars="f_26"> 
<DataArray  type="Float64"  Name="f_26"  format="ascii">2.2099722985284907e-05  2.2109053485715590e-05  2.2131730815800717e-05  2.2168346747931927e-05  2.2218760357092010e-05  2.2282405817102624e-05  2.2358358708110959e-05  2.2445371266184001e-05  2.2541906772795532e-05  2.2646179849081831e-05  2.2756211608496246e-05  2.2869906121201788e-05  2.2985146037835658e-05  2.3099896775219412e-05  2.3212305059424005e-05  2.3320778823556625e-05  2.3424039719515228e-05  2.3521145037300533e-05  2.3611481061638954e-05  2.3694733697403627e-05  2.3770844065191454e-05  2.3839956832796782e-05  2.3902367836776381e-05  2.3958475710803076e-05  2.4008740327412101e-05  2.4053649232558151e-05  2.4093692063672677e-05  2.4129342199412038e-05  2.4161044518058241e-05  2.4189208037336522e-05  2.4214202271455047e-05  2.4236356291986538e-05  2.4255959662388676e-05  2.4273264597368392e-05  2.4288488859886693e-05  2.4301819043133693e-05  2.4313413991528056e-05  2.4323408196356210e-05  2.4331915062098470e-05  2.4339029983040961e-05  2.4344833200307525e-05  2.4349392430196950e-05  2.4352765268242120e-05  2.4355001381678405e-05  2.4356144507480694e-05  2.4356234274877630e-05  2.4355307871066541e-05  2.4353401567315640e-05  2.4350552120185534e-05  2.4346798059555276e-05  2.4342180871740957e-05  2.4336746082417647e-05  2.4330544240405474e-05  2.4323631799707401e-05  2.4316071893490854e-05  2.4307934989955067e-05  2.4299299416178678e-05  2.4290251732078334e-05  2.4280886932571784e-05  2.4271308452075820e-05  2.4261627941872630e-05  2.4251964788109682e-05  2.4242445336898881e-05  2.4233201793943070e-05  2.4224370770227919e-05  2.4216091453448865e-05  2.4208503397717214e-05  2.4201743942099846e-05  2.4195945291574083e-05  2.4191231321220194e-05  2.4187714194328132e-05  2.4185490915139939e-05  2.4184639964051568e-05  2.4185218183678413e-05  2.4187258094637151e-05  2.4190765817106324e-05  2.4195719756169553e-05  2.4202070175182109e-05  2.4209739733429352e-05  2.4218625005656188e-05  2.4228598936856944e-05  2.4239514122364445e-05  2.4251206747380967e-05  2.4263500977586897e-05  2.4276213567722470e-05  2.4289158450250090e-05  2.4302151081099046e-05  2.4315012351489257e-05  2.4327571919536394e-05  2.4339670867300384e-05  2.4351163642438753e-05  2.4361919293391938e-05  2.4371822048638075e-05  2.4380771320333142e-05  2.4388681226479890e-05  2.4395479714835407e-05  2.4401107307206092e-05  2.4405515254238433e-05  2.4408662038199619e-05  2.4410503625016794e-05  2.4410956887238569e-05  2.2106937781314573e-05  2.2114744890622578e-05  2.2136992093459054e-05  2.2173399996277212e-05  2.2223627166486124e-05  2.2287056758453635e-05  2.2362751692196749e-05  2.2449463701490289e-05  2.2545660764624387e-05  2.2649565052653057e-05  2.2759206811692026e-05  2.2872500009925862e-05  2.2987337309660135e-05  2.3101693571388670e-05  2.3213723758387636e-05  2.3321842385109973e-05  2.3424775833487387e-05  2.3521584308006965e-05  2.3611655391403300e-05  2.3694674956955436e-05  2.3770583076835032e-05  2.3839522650806836e-05  2.3901787286722011e-05  2.3957773140286765e-05  2.4007937519904119e-05  2.4052765439830727e-05  2.4092744118413665e-05  2.4128344676523248e-05  2.4160009920083468e-05  2.4188146985899210e-05  2.4213123692198042e-05  2.4235267585134610e-05  2.4254866854661862e-05  2.4272172473620469e-05  2.4287401074650779e-05  2.4300738213381148e-05  2.4312341772550585e-05  2.4322345342918438e-05  2.4330861477014517e-05  2.4337984755216066e-05  2.4343794634142460e-05  2.4348358068144184e-05  2.4351731908272312e-05  2.4353965091489515e-05  2.4355100637468397e-05  2.4355177472178080e-05  2.4354232097360338e-05  2.4352300123511045e-05  2.4349417681532593e-05  2.4345622725122185e-05  2.4340956232440599e-05  2.4335463311829392e-05  2.4329194212415308e-05  2.4322205236412072e-05  2.4314559545814323e-05  2.4306327851966303e-05  2.4297588972170549e-05  2.4288430233105529e-05  2.4278947696443219e-05  2.4269246177905722e-05  2.4259439027423915e-05  2.4249647635571342e-05  2.4240000630712250e-05  2.4230632733118650e-05  2.4221683237530741e-05  2.4213294105065256e-05  2.4205607659637638e-05  2.4198763903426353e-05  2.4192897490115488e-05  2.4188134422770766e-05  2.4184588573520912e-05  2.4182358152228537e-05  2.4181522277873104e-05  2.4182137825865555e-05  2.4184236733422664e-05  2.4187823940452271e-05  2.4192876123259555e-05  2.4199341342523108e-05  2.4207139677097840e-05  2.4216164854960967e-05  2.4226286827404321e-05  2.4237355168840842e-05  2.4249203128990144e-05  2.4261652122632394e-05  2.4274516418831788e-05  2.4287607788538333e-05  2.4300739886297179e-05  2.4313732175634821e-05  2.4326413253981847e-05  2.4338623486159128e-05  2.4350216909750502e-05  2.4361062425914884e-05  2.4371044331194281e-05  2.4380062276676261e-05  2.4388030758484553e-05  2.4394878246778386e-05  2.4400546050868496e-05  2.4404987018984856e-05  2.4408164346084370e-05  2.4410052098700616e-05  2.4410647198521109e-05  2.2123400624581559e-05  2.2130789305952957e-05  2.2152642383758689e-05  2.2188661020400612e-05  2.2238426638596718e-05  2.2301278446812562e-05  2.2376263468948092e-05  2.2462134173984490e-05  2.2557368979463751e-05  2.2660207178976980e-05  2.2768701616454950e-05  2.2880793319670204e-05  2.2994404848594756e-05  2.3107541569963582e-05  2.3218387160769678e-05  2.3325380966359070e-05  2.3427268874468237e-05  2.3523124610816110e-05  2.3612343369954716e-05  2.3694613366418810e-05  2.3769872723457797e-05  2.3838259210769512e-05  2.3900059196487713e-05  2.3955660414877157e-05  2.4005511305488879e-05  2.4050088099542579e-05  2.4089869669753752e-05  2.4125319431496496e-05  2.4156873215462924e-05  2.4184931924742929e-05  2.4209857845964431e-05  2.4231973627572217e-05  2.4251563114415539e-05  2.4268873403113493e-05  2.4284117639372588e-05  2.4297478209294247e-05  2.4309110080846186e-05  2.4319144131541157e-05  2.4327690357815696e-05  2.4334840904709053e-05  2.4340672884925941e-05  2.4345250977338889e-05  2.4348629808911622e-05  2.4350856132783467e-05  2.4351970820239203e-05  2.4352010686515756e-05  2.4351010170601497e-05  2.4349002887896980e-05  2.4346023072213079e-05  2.4342106920362516e-05  2.4337293848753423e-05  2.4331627667056986e-05  2.4325157669285622e-05  2.4317939637540916e-05  2.4310036748314081e-05  2.4301520365596688e-05  2.4292470699275296e-05  2.4282977301500912e-05  2.4273139368207550e-05  2.4263065808098105e-05  2.4252875037757881e-05  2.4242694459769912e-05  2.4232659581568387e-05  2.4222912737097196e-05  2.4213601381913865e-05  2.4204875945809014e-05  2.4196887245618917e-05  2.4189783484580099e-05  2.4183706892626898e-05  2.4178790093105959e-05  2.4175152313388889e-05  2.4172895587026819e-05  2.4172101120093793e-05  2.4172826010648513e-05  2.4175100514428237e-05  2.4178926039303505e-05  2.4184274024257025e-05  2.4191085816025993e-05  2.4199273600394236e-05  2.4208722379755341e-05  2.4219292919920954e-05  2.4230825524055710e-05  2.4243144436890021e-05  2.4256062643769108e-05  2.4269386810514985e-05  2.4282922112918190e-05  2.4296476727742463e-05  2.4309865796911694e-05  2.4322914727888678e-05  2.4335461750182984e-05  2.4347359704565835e-05  2.4358477092903113e-05  2.4368698458932121e-05  2.4377924201974811e-05  2.4386069946934085e-05  2.4393065609153691e-05  2.4398854315016197e-05  2.4403391406993517e-05  2.4406643980420523e-05  2.4408591984273966e-05  2.4409232727098267e-05  2.2150035540996805e-05  2.2157233698004763e-05  2.2178708817807705e-05  2.2214190085885865e-05  2.2263229935585099e-05  2.2325140741717123e-05  2.2398959768800433e-05  2.2483445247663884e-05  2.2577093082551491e-05  2.2678169772484433e-05  2.2784764311803972e-05  2.2894861626542316e-05  2.3006433379458476e-05  2.3117535577377751e-05  2.3226400055983662e-05  2.3331508264465303e-05  2.3431639586219415e-05  2.3525891363844012e-05  2.3613672503466759e-05  2.3694675985925632e-05  2.3768837339554509e-05  2.3836286223253035e-05  2.3897297192321871e-05  2.3952244055320289e-05  2.4001560481451902e-05  2.4045708014007927e-05  2.4085151535237070e-05  2.4120341525000151e-05  2.4151702095318376e-05  2.4179623672042853e-05  2.4204459242337603e-05  2.4226523219063346e-05  2.4246092138668905e-05  2.4263406575495017e-05  2.4278673805027301e-05  2.4292070874290896e-05  2.4303747838120420e-05  2.4313830997613782e-05  2.4322426035232512e-05  2.4329620983562695e-05  2.4335488995204731e-05  2.4340090902559488e-05  2.4343477570755529e-05  2.4345692056389407e-05  2.4346771590435357e-05  2.4346749406564338e-05  2.4345656436863842e-05  2.4343522896037166e-05  2.4340379772907187e-05  2.4336260244673212e-05  2.4331201025012193e-05  2.4325243651866879e-05  2.4318435714682569e-05  2.4310832013996466e-05  2.4302495638731289e-05  2.4293498938445686e-05  2.4283924359398823e-05  2.4273865104989086e-05  2.4263425573487361e-05  2.4252721519737919e-05  2.4241879883531073e-05  2.4231038226643262e-05  2.4220343724083191e-05  2.4209951663759920e-05  2.4200023423244554e-05  2.4190723912802248e-05  2.4182218500203323e-05  2.4174669464169077e-05  2.4168232058207651e-05  2.4163050302920570e-05  2.4159252659860133e-05  2.4156947770432791e-05  2.4156220465618933e-05  2.4157128262888360e-05  2.4159698562567882e-05  2.4163926734974952e-05  2.4169775251277550e-05  2.4177173956603997e-05  2.4186021516849776e-05  2.4196187996339253e-05  2.4207518448898555e-05  2.4219837337502205e-05  2.4232953544548884e-05  2.4246665701561148e-05  2.4260767556872111e-05  2.4275053112999130e-05  2.4289321299438336e-05  2.4303379996767760e-05  2.4317049287992024e-05  2.4330163876332340e-05  2.4342574669028152e-05  2.4354149579339079e-05  2.4364773640791951e-05  2.4374348557869912e-05  2.4382791837197311e-05  2.4390035657154667e-05  2.4396025650109385e-05  2.4400719802527055e-05  2.4404087727875818e-05  2.4406110550481417e-05  2.4406781060311002e-05  2.2187276870099448e-05  2.2194308794555204e-05  2.2215343067333171e-05  2.2250111314853245e-05  2.2298145669135251e-05  2.2358740707715620e-05  2.2430929852617979e-05  2.2513482561870684e-05  2.2604919444888504e-05  2.2703544307539111e-05  2.2807495637324220e-05  2.2914818485463322e-05  2.3023551772330096e-05  2.3131820909559560e-05  2.3237923851485098e-05  2.3340400039334520e-05  2.3438075234053662e-05  2.3530079764865005e-05  2.3615842031761228e-05  2.3695062258038212e-05  2.3767673068839593e-05  2.3833793557650425e-05  2.3893682514560581e-05  2.3947694956805257e-05  2.3996244483538884e-05  2.4039772576675856e-05  2.4078724928227302e-05  2.4113534207820867e-05  2.4144608335589332e-05  2.4172323210882915e-05  2.4197018882780717e-05  2.4218998266023143e-05  2.4238527657150565e-05  2.4255838459573992e-05  2.4271129666138671e-05  2.4284570766130302e-05  2.4296304839161251e-05  2.4306451672700012e-05  2.4315110796311260e-05  2.4322364367420095e-05  2.4328279873812756e-05  2.4332912639846013e-05  2.4336308138602696e-05  2.4338504122625222e-05  2.4339532592566747e-05  2.4339421626957969e-05  2.4338197097870587e-05  2.4335884296943109e-05  2.4332509494252973e-05  2.4328101448996730e-05  2.4322692885927909e-05  2.4316321945007151e-05  2.4309033603739380e-05  2.4300881062241053e-05  2.4291927070319670e-05  2.4282245164027763e-05  2.4271920766755707e-05  2.4261052097687967e-05  2.4249750819380519e-05  2.4238142347592376e-05  2.4226365741770340e-05  2.4214573095238097e-05  2.4202928351535659e-05  2.4191605488503553e-05  2.4180786035062924e-05  2.4170655916941232e-05  2.4161401665743961e-05  2.4153206068850220e-05  2.4146243382921359e-05  2.4140674278037829e-05  2.4136640718869420e-05  2.4134261019892579e-05  2.4133625329643658e-05  2.4134791800930621e-05  2.4137783687278313e-05  2.4142587569461537e-05  2.4149152860414819e-05  2.4157392664896762e-05  2.4167185987098932e-05  2.4178381191978554e-05  2.4190800542797600e-05  2.4204245566712399e-05  2.4218502949766837e-05  2.4233350637536567e-05  2.4248563820080375e-05  2.4263920508482892e-05  2.4279206460699563e-05  2.4294219279929065e-05  2.4308771581506744e-05  2.4322693196619360e-05  2.4335832446456168e-05  2.4348056574117262e-05  2.4359251461329361e-05  2.4369320782634698e-05  2.4378184763037778e-05  2.4385778709340152e-05  2.4392051483851453e-05  2.4396964080957080e-05  2.4400488434233424e-05  2.4402606459052940e-05  2.4403308981767852e-05  2.2235381873956918e-05  2.2242217089920362e-05  2.2262697856963824e-05  2.2296545203898326e-05  2.2343273178210148e-05  2.2402163900989436e-05  2.2472251767038093e-05  2.2552322660190877e-05  2.2640929038409239e-05  2.2736422020803798e-05  2.2837002548237922e-05  2.2940791125874230e-05  2.3045910648575120e-05  2.3150572881653635e-05  2.3253157921329492e-05  2.3352277298083193e-05  2.3446814600562100e-05  2.3535941567292217e-05  2.3619111442693011e-05  2.3696034204124191e-05  2.3766639669189581e-05  2.3831034564530758e-05  2.3889458749652016e-05  2.3942244409219875e-05  2.3989780563407367e-05  2.4032483970881837e-05  2.4070776541941723e-05  2.4105068758299290e-05  2.4135748263591010e-05  2.4163172670795938e-05  2.4187665654776356e-05  2.4209515498431727e-05  2.4228975394851855e-05  2.4246264946703006e-05  2.4261572431796185e-05  2.4275057513077648e-05  2.4286854160369988e-05  2.4297073621354359e-05  2.4305807333186735e-05  2.4313129706820513e-05  2.4319100746415027e-05  2.4323768488559251e-05  2.4327171262339863e-05  2.4329339782964996e-05  2.4330299099745231e-05  2.4330070424433160e-05  2.4328672868681391e-05  2.4326125119952787e-05  2.4322447083713250e-05  2.4317661516151730e-05  2.4311795665919715e-05  2.4304882935339262e-05  2.4296964561083043e-05  2.4288091301453585e-05  2.4278325102223215e-05  2.4267740695951615e-05  2.4256427071549348e-05  2.4244488732813450e-05  2.4232046648392212e-05  2.4219238783205665e-05  2.4206220095063629e-05  2.4193161882381883e-05  2.4180250381448101e-05  2.4167684535871303e-05  2.4155672896853799e-05  2.4144429659677843e-05  2.4134169896893561e-05  2.4125104108519552e-05  2.4117432269596978e-05  2.4111337610628039e-05  2.4106980411649525e-05  2.4104492121130354e-05  2.4103970122411724e-05  2.4105473459930516e-05  2.4109019803272370e-05  2.4114583869274380e-05  2.4122097443214956e-05  2.4131451044341253e-05  2.4142497175814194e-05  2.4155054993844336e-05  2.4168916135662950e-05  2.4183851371017761e-05  2.4199617695212176e-05  2.4215965468141928e-05  2.4232645223982561e-05  2.4249413826524990e-05  2.4266039718436965e-05  2.4282307099473735e-05  2.4298018958765144e-05  2.4312998970596674e-05  2.4327092334530768e-05  2.4340165695006195e-05  2.4352106311273597e-05  2.4362820666683486e-05  2.4372232709629476e-05  2.4380281910151168e-05  2.4386921298549338e-05  2.4392115623756429e-05  2.4395839720101263e-05  2.4398077083283711e-05  2.4398818529824191e-05  2.2294457634477541e-05  2.2301048886164965e-05  2.2320839347234396e-05  2.2353537848860045e-05  2.2398644333838595e-05  2.2455433787474167e-05  2.2522946648810819e-05  2.2599990883264334e-05  2.2685158342510657e-05  2.2776857575315042e-05  2.2873364479891089e-05  2.2972889176447119e-05  2.3073653436421455e-05  2.3173970092512552e-05  2.3272315056674444e-05  2.3367383886769756e-05  2.3458127720490886e-05  2.3543766969899478e-05  2.3623784520783946e-05  2.3697902614119772e-05  2.3766048794914346e-05  2.3828316367648959e-05  2.3884924016651127e-05  2.3936178035679917e-05  2.3982439316926982e-05  2.4024096113944293e-05  2.4061542731425386e-05  2.4095163727068618e-05  2.4125322898594402e-05  2.4152356209386262e-05  2.4176567814386744e-05  2.4198228429316394e-05  2.4217575400956830e-05  2.4234813957967971e-05  2.4250119235455839e-05  2.4263638765154677e-05  2.4275495204580447e-05  2.4285789143663039e-05  2.4294601878332274e-05  2.4301998079884565e-05  2.4308028319134599e-05  2.4312731427432114e-05  2.4316136694224003e-05  2.4318265914167052e-05  2.4319135306678339e-05  2.4318757337782835e-05  2.4317142478475433e-05  2.4314300935660798e-05  2.4310244391014861e-05  2.4304987779644354e-05  2.4298551133928405e-05  2.4290961508086450e-05  2.4282254985536018e-05  2.4272478753822882e-05  2.4261693210939149e-05  2.4249974042736643e-05  2.4237414185026014e-05  2.4224125557663916e-05  2.4210240434045459e-05  2.4195912291148869e-05  2.4181315976205227e-05  2.4166647029700524e-05  2.4152120023631484e-05  2.4137965810344338e-05  2.4124427630711242e-05  2.4111756098563371e-05  2.4100203156831205e-05  2.4090015183642793e-05  2.4081425506530996e-05  2.4074646652471682e-05  2.4069862713808909e-05  2.4067222239457419e-05  2.4066832062892544e-05  2.4068752450917804e-05  2.4072993899596280e-05  2.4079515817825798e-05  2.4088227229150640e-05  2.4098989495645348e-05  2.4111620933939635e-05  2.4125903064705400e-05  2.4141588126143480e-05  2.4158407401235189e-05  2.4176079866865105e-05  2.4194320674782449e-05  2.4212849018489713e-05  2.4231395019745439e-05  2.4249705372377825e-05  2.4267547596216662e-05  2.4284712866918087e-05  2.4301017487141492e-05  2.4316303143272873e-05  2.4330436145987611e-05  2.4343305882416663e-05  2.4354822715354485e-05  2.4364915555277956e-05  2.4373529308680777e-05  2.4380622375068366e-05  2.4386164326411941e-05  2.4390133856271555e-05  2.4392517032929392e-05  2.4393305852038410e-05  2.2364430514690461e-05  2.2370725975328373e-05  2.2389681442657939e-05  2.2420996708113035e-05  2.2464163425628794e-05  2.2518455841632646e-05  2.2582926725532520e-05  2.2656413022731042e-05  2.2737554466923153e-05  2.2824827452085698e-05  2.2916594766742854e-05  2.3011168852925220e-05  2.3106883090647061e-05  2.3202163494307640e-05  2.3295592776196689e-05  2.3385960004334769e-05  2.3472291616397715e-05  2.3553862622703502e-05  2.3630189675236545e-05  2.3701009728891052e-05  2.3766249030009727e-05  2.3825987201039014e-05  2.3880420516855751e-05  2.3929827424000844e-05  2.3974538235616630e-05  2.4014909945287940e-05  2.4051306343455527e-05  2.4084083111038869e-05  2.4113577276729465e-05  2.4140100305179679e-05  2.4163934078268755e-05  2.4185329093875973e-05  2.4204504301062699e-05  2.4221648093896780e-05  2.4236920084597104e-05  2.4250453363458794e-05  2.4262357025905709e-05  2.4272718806396655e-05  2.4281607706451008e-05  2.4289076541837475e-05  2.4295164363991253e-05  2.4299898734682167e-05  2.4303297852155769e-05  2.4305372542341226e-05  2.4306128140868543e-05  2.4305566300897308e-05  2.4303686768239785e-05  2.4300489168878860e-05  2.4295974854479131e-05  2.4290148848452613e-05  2.4283021928027317e-05  2.4274612865965715e-05  2.4264950838508891e-05  2.4254077983386115e-05  2.4242052063327261e-05  2.4228949157093016e-05  2.4214866263138901e-05  2.4199923663299166e-05  2.4184266859127336e-05  2.4168067866596216e-05  2.4151525641174199e-05  2.4134865410172980e-05  2.4118336716965550e-05  2.4102210034398718e-05  2.4086771881753209e-05  2.4072318476860304e-05  2.4059148065177650e-05  2.4047552181033410e-05  2.4037806201972728e-05  2.4030159644579185e-05  2.4024826710279700e-05  2.4021977615903811e-05  2.4021731232359036e-05  2.4024149504607783e-05  2.4029234038598715e-05  2.4036925119799284e-05  2.4047103280079457e-05  2.4059593364547354e-05  2.4074170880329181e-05  2.4090570250583524e-05  2.4108494465633396e-05  2.4127625533986278e-05  2.4147635100004563e-05  2.4168194616321031e-05  2.4188984534203949e-05  2.4209702093020011e-05  2.4230067434408457e-05  2.4249827919162821e-05  2.4268760667544224e-05  2.4286673463022678e-05  2.4303404246845793e-05  2.4318819483648129e-05  2.4332811698711382e-05  2.4345296481026851e-05  2.4356209220198178e-05  2.4365501806684765e-05  2.4373139479988457e-05  2.4379097962539876e-05  2.4383360971782735e-05  2.4385918164905665e-05  2.4386763552633850e-05  2.2445003505301697e-05  2.2450952052606046e-05  2.2468929852840134e-05  2.2498632141237519e-05  2.2539548954162948e-05  2.2590961264078023e-05  2.2651941944625262e-05  2.2721365380587712e-05  2.2797928770985872e-05  2.2880186969829092e-05  2.2966600747573998e-05  2.3055595788789169e-05  2.3145627320205272e-05  2.3235243768500730e-05  2.3323142704239993e-05  2.3408213538221238e-05  2.3489563629137918e-05  2.3566527041532830e-05  2.3638657546318460e-05  2.3705709134793818e-05  2.3767608133475985e-05  2.3824421020550685e