<?xml version="1.0"?>
<VTKFile type="UnstructuredGrid"  version="0.1"  >
<UnstructuredGrid>
<Piece  NumberOfPoints="10201" NumberOfCells="20000">
<Points>
<DataArray  type="Float64"  NumberOfComponents="3"  format="ascii">0 0 0  0.25 0 0  0.5 0 0  0.75 0 0  1 0 0  1.25 0 0  1.5 0 0  1.75 0 0  2 0 0  2.25 0 0  2.5 0 0  2.75 0 0  3 0 0  3.25 0 0  3.5 0 0  3.75 0 0  4 0 0  4.25 0 0  4.5 0 0  4.75 0 0  5 0 0  5.25 0 0  5.5 0 0  5.75 0 0  6 0 0  6.25 0 0  6.5 0 0  6.75 0 0  7 0 0  7.25 0 0  7.5 0 0  7.75 0 0  8 0 0  8.25 0 0  8.5 0 0  8.75 0 0  9 0 0  9.25 0 0  9.5 0 0  9.75 0 0  10 0 0  10.25 0 0  10.5 0 0  10.75 0 0  11 0 0  11.25 0 0  11.5 0 0  11.75 0 0  12 0 0  12.25 0 0  12.5 0 0  12.75 0 0  13 0 0  13.25 0 0  13.5 0 0  13.75 0 0  14 0 0  14.25 0 0  14.5 0 0  14.75 0 0  15 0 0  15.25 0 0  15.5 0 0  15.75 0 0  16 0 0  16.25 0 0  16.5 0 0  16.75 0 0  17 0 0  17.25 0 0  17.5 0 0  17.75 0 0  18 0 0  18.25 0 0  18.5 0 0  18.75 0 0  19 0 0  19.25 0 0  19.5 0 0  19.75 0 0  20 0 0  20.25 0 0  20.5 0 0  20.75 0 0  21 0 0  21.25 0 0  21.5 0 0  21.75 0 0  22 0 0  22.25 0 0  22.5 0 0  22.75 0 0  23 0 0  23.25 0 0  23.5 0 0  23.75 0 0  24 0 0  24.25 0 0  24.5 0 0  24.75 0 0  25 0 0  0 0.25 0  0.25 0.25 0  0.5 0.25 0  0.75 0.25 0  1 0.25 0  1.25 0.25 0  1.5 0.25 0  1.75 0.25 0  2 0.25 0  2.25 0.25 0  2.5 0.25 0  2.75 0.25 0  3 0.25 0  3.25 0.25 0  3.5 0.25 0  3.75 0.25 0  4 0.25 0  4.25 0.25 0  4.5 0.25 0  4.75 0.25 0  5 0.25 0  5.25 0.25 0  5.5 0.25 0  5.75 0.25 0  6 0.25 0  6.25 0.25 0  6.5 0.25 0  6.75 0.25 0  7 0.25 0  7.25 0.25 0  7.5 0.25 0  7.75 0.25 0  8 0.25 0  8.25 0.25 0  8.5 0.25 0  8.75 0.25 0  9 0.25 0  9.25 0.25 0  9.5 0.25 0  9.75 0.25 0  10 0.25 0  10.25 0.25 0  10.5 0.25 0  10.75 0.25 0  11 0.25 0  11.25 0.25 0  11.5 0.25 0  11.75 0.25 0  12 0.25 0  12.25 0.25 0  12.5 0.25 0  12.75 0.25 0  13 0.25 0  13.25 0.25 0  13.5 0.25 0  13.75 0.25 0  14 0.25 0  14.25 0.25 0  14.5 0.25 0  14.75 0.25 0  15 0.25 0  15.25 0.25 0  15.5 0.25 0  15.75 0.25 0  16 0.25 0  16.25 0.25 0  16.5 0.25 0  16.75 0.25 0  17 0.25 0  17.25 0.25 0  17.5 0.25 0  17.75 0.25 0  18 0.25 0  18.25 0.25 0  18.5 0.25 0  18.75 0.25 0  19 0.25 0  19.25 0.25 0  19.5 0.25 0  19.75 0.25 0  20 0.25 0  20.25 0.25 0  20.5 0.25 0  20.75 0.25 0  21 0.25 0  21.25 0.25 0  21.5 0.25 0  21.75 0.25 0  22 0.25 0  22.25 0.25 0  22.5 0.25 0  22.75 0.25 0  23 0.25 0  23.25 0.25 0  23.5 0.25 0  23.75 0.25 0  24 0.25 0  24.25 0.25 0  24.5 0.25 0  24.75 0.25 0  25 0.25 0  0 0.5 0  0.25 0.5 0  0.5 0.5 0  0.75 0.5 0  1 0.5 0  1.25 0.5 0  1.5 0.5 0  1.75 0.5 0  2 0.5 0  2.25 0.5 0  2.5 0.5 0  2.75 0.5 0  3 0.5 0  3.25 0.5 0  3.5 0.5 0  3.75 0.5 0  4 0.5 0  4.25 0.5 0  4.5 0.5 0  4.75 0.5 0  5 0.5 0  5.25 0.5 0  5.5 0.5 0  5.75 0.5 0  6 0.5 0  6.25 0.5 0  6.5 0.5 0  6.75 0.5 0  7 0.5 0  7.25 0.5 0  7.5 0.5 0  7.75 0.5 0  8 0.5 0  8.25 0.5 0  8.5 0.5 0  8.75 0.5 0  9 0.5 0  9.25 0.5 0  9.5 0.5 0  9.75 0.5 0  10 0.5 0  10.25 0.5 0  10.5 0.5 0  10.75 0.5 0  11 0.5 0  11.25 0.5 0  11.5 0.5 0  11.75 0.5 0  12 0.5 0  12.25 0.5 0  12.5 0.5 0  12.75 0.5 0  13 0.5 0  13.25 0.5 0  13.5 0.5 0  13.75 0.5 0  14 0.5 0  14.25 0.5 0  14.5 0.5 0  14.75 0.5 0  15 0.5 0  15.25 0.5 0  15.5 0.5 0  15.75 0.5 0  16 0.5 0  16.25 0.5 0  16.5 0.5 0  16.75 0.5 0  17 0.5 0  17.25 0.5 0  17.5 0.5 0  17.75 0.5 0  18 0.5 0  18.25 0.5 0  18.5 0.5 0  18.75 0.5 0  19 0.5 0  19.25 0.5 0  19.5 0.5 0  19.75 0.5 0  20 0.5 0  20.25 0.5 0  20.5 0.5 0  20.75 0.5 0  21 0.5 0  21.25 0.5 0  21.5 0.5 0  21.75 0.5 0  22 0.5 0  22.25 0.5 0  22.5 0.5 0  22.75 0.5 0  23 0.5 0  23.25 0.5 0  23.5 0.5 0  23.75 0.5 0  24 0.5 0  24.25 0.5 0  24.5 0.5 0  24.75 0.5 0  25 0.5 0  0 0.75 0  0.25 0.75 0  0.5 0.75 0  0.75 0.75 0  1 0.75 0  1.25 0.75 0  1.5 0.75 0  1.75 0.75 0  2 0.75 0  2.25 0.75 0  2.5 0.75 0  2.75 0.75 0  3 0.75 0  3.25 0.75 0  3.5 0.75 0  3.75 0.75 0  4 0.75 0  4.25 0.75 0  4.5 0.75 0  4.75 0.75 0  5 0.75 0  5.25 0.75 0  5.5 0.75 0  5.75 0.75 0  6 0.75 0  6.25 0.75 0  6.5 0.75 0  6.75 0.75 0  7 0.75 0  7.25 0.75 0  7.5 0.75 0  7.75 0.75 0  8 0.75 0  8.25 0.75 0  8.5 0.75 0  8.75 0.75 0  9 0.75 0  9.25 0.75 0  9.5 0.75 0  9.75 0.75 0  10 0.75 0  10.25 0.75 0  10.5 0.75 0  10.75 0.75 0  11 0.75 0  11.25 0.75 0  11.5 0.75 0  11.75 0.75 0  12 0.75 0  12.25 0.75 0  12.5 0.75 0  12.75 0.75 0  13 0.75 0  13.25 0.75 0  13.5 0.75 0  13.75 0.75 0  14 0.75 0  14.25 0.75 0  14.5 0.75 0  14.75 0.75 0  15 0.75 0  15.25 0.75 0  15.5 0.75 0  15.75 0.75 0  16 0.75 0  16.25 0.75 0  16.5 0.75 0  16.75 0.75 0  17 0.75 0  17.25 0.75 0  17.5 0.75 0  17.75 0.75 0  18 0.75 0  18.25 0.75 0  18.5 0.75 0  18.75 0.75 0  19 0.75 0  19.25 0.75 0  19.5 0.75 0  19.75 0.75 0  20 0.75 0  20.25 0.75 0  20.5 0.75 0  20.75 0.75 0  21 0.75 0  21.25 0.75 0  21.5 0.75 0  21.75 0.75 0  22 0.75 0  22.25 0.75 0  22.5 0.75 0  22.75 0.75 0  23 0.75 0  23.25 0.75 0  23.5 0.75 0  23.75 0.75 0  24 0.75 0  24.25 0.75 0  24.5 0.75 0  24.75 0.75 0  25 0.75 0  0 1 0  0.25 1 0  0.5 1 0  0.75 1 0  1 1 0  1.25 1 0  1.5 1 0  1.75 1 0  2 1 0  2.25 1 0  2.5 1 0  2.75 1 0  3 1 0  3.25 1 0  3.5 1 0  3.75 1 0  4 1 0  4.25 1 0  4.5 1 0  4.75 1 0  5 1 0  5.25 1 0  5.5 1 0  5.75 1 0  6 1 0  6.25 1 0  6.5 1 0  6.75 1 0  7 1 0  7.25 1 0  7.5 1 0  7.75 1 0  8 1 0  8.25 1 0  8.5 1 0  8.75 1 0  9 1 0  9.25 1 0  9.5 1 0  9.75 1 0  10 1 0  10.25 1 0  10.5 1 0  10.75 1 0  11 1 0  11.25 1 0  11.5 1 0  11.75 1 0  12 1 0  12.25 1 0  12.5 1 0  12.75 1 0  13 1 0  13.25 1 0  13.5 1 0  13.75 1 0  14 1 0  14.25 1 0  14.5 1 0  14.75 1 0  15 1 0  15.25 1 0  15.5 1 0  15.75 1 0  16 1 0  16.25 1 0  16.5 1 0  16.75 1 0  17 1 0  17.25 1 0  17.5 1 0  17.75 1 0  18 1 0  18.25 1 0  18.5 1 0  18.75 1 0  19 1 0  19.25 1 0  19.5 1 0  19.75 1 0  20 1 0  20.25 1 0  20.5 1 0  20.75 1 0  21 1 0  21.25 1 0  21.5 1 0  21.75 1 0  22 1 0  22.25 1 0  22.5 1 0  22.75 1 0  23 1 0  23.25 1 0  23.5 1 0  23.75 1 0  24 1 0  24.25 1 0  24.5 1 0  24.75 1 0  25 1 0  0 1.25 0  0.25 1.25 0  0.5 1.25 0  0.75 1.25 0  1 1.25 0  1.25 1.25 0  1.5 1.25 0  1.75 1.25 0  2 1.25 0  2.25 1.25 0  2.5 1.25 0  2.75 1.25 0  3 1.25 0  3.25 1.25 0  3.5 1.25 0  3.75 1.25 0  4 1.25 0  4.25 1.25 0  4.5 1.25 0  4.75 1.25 0  5 1.25 0  5.25 1.25 0  5.5 1.25 0  5.75 1.25 0  6 1.25 0  6.25 1.25 0  6.5 1.25 0  6.75 1.25 0  7 1.25 0  7.25 1.25 0  7.5 1.25 0  7.75 1.25 0  8 1.25 0  8.25 1.25 0  8.5 1.25 0  8.75 1.25 0  9 1.25 0  9.25 1.25 0  9.5 1.25 0  9.75 1.25 0  10 1.25 0  10.25 1.25 0  10.5 1.25 0  10.75 1.25 0  11 1.25 0  11.25 1.25 0  11.5 1.25 0  11.75 1.25 0  12 1.25 0  12.25 1.25 0  12.5 1.25 0  12.75 1.25 0  13 1.25 0  13.25 1.25 0  13.5 1.25 0  13.75 1.25 0  14 1.25 0  14.25 1.25 0  14.5 1.25 0  14.75 1.25 0  15 1.25 0  15.25 1.25 0  15.5 1.25 0  15.75 1.25 0  16 1.25 0  16.25 1.25 0  16.5 1.25 0  16.75 1.25 0  17 1.25 0  17.25 1.25 0  17.5 1.25 0  17.75 1.25 0  18 1.25 0  18.25 1.25 0  18.5 1.25 0  18.75 1.25 0  19 1.25 0  19.25 1.25 0  19.5 1.25 0  19.75 1.25 0  20 1.25 0  20.25 1.25 0  20.5 1.25 0  20.75 1.25 0  21 1.25 0  21.25 1.25 0  21.5 1.25 0  21.75 1.25 0  22 1.25 0  22.25 1.25 0  22.5 1.25 0  22.75 1.25 0  23 1.25 0  23.25 1.25 0  23.5 1.25 0  23.75 1.25 0  24 1.25 0  24.25 1.25 0  24.5 1.25 0  24.75 1.25 0  25 1.25 0  0 1.5 0  0.25 1.5 0  0.5 1.5 0  0.75 1.5 0  1 1.5 0  1.25 1.5 0  1.5 1.5 0  1.75 1.5 0  2 1.5 0  2.25 1.5 0  2.5 1.5 0  2.75 1.5 0  3 1.5 0  3.25 1.5 0  3.5 1.5 0  3.75 1.5 0  4 1.5 0  4.25 1.5 0  4.5 1.5 0  4.75 1.5 0  5 1.5 0  5.25 1.5 0  5.5 1.5 0  5.75 1.5 0  6 1.5 0  6.25 1.5 0  6.5 1.5 0  6.75 1.5 0  7 1.5 0  7.25 1.5 0  7.5 1.5 0  7.75 1.5 0  8 1.5 0  8.25 1.5 0  8.5 1.5 0  8.75 1.5 0  9 1.5 0  9.25 1.5 0  9.5 1.5 0  9.75 1.5 0  10 1.5 0  10.25 1.5 0  10.5 1.5 0  10.75 1.5 0  11 1.5 0  11.25 1.5 0  11.5 1.5 0  11.75 1.5 0  12 1.5 0  12.25 1.5 0  12.5 1.5 0  12.75 1.5 0  13 1.5 0  13.25 1.5 0  13.5 1.5 0  13.75 1.5 0  14 1.5 0  14.25 1.5 0  14.5 1.5 0  14.75 1.5 0  15 1.5 0  15.25 1.5 0  15.5 1.5 0  15.75 1.5 0  16 1.5 0  16.25 1.5 0  16.5 1.5 0  16.75 1.5 0  17 1.5 0  17.25 1.5 0  17.5 1.5 0  17.75 1.5 0  18 1.5 0  18.25 1.5 0  18.5 1.5 0  18.75 1.5 0  19 1.5 0  19.25 1.5 0  19.5 1.5 0  19.75 1.5 0  20 1.5 0  20.25 1.5 0  20.5 1.5 0  20.75 1.5 0  21 1.5 0  21.25 1.5 0  21.5 1.5 0  21.75 1.5 0  22 1.5 0  22.25 1.5 0  22.5 1.5 0  22.75 1.5 0  23 1.5 0  23.25 1.5 0  23.5 1.5 0  23.75 1.5 0  24 1.5 0  24.25 1.5 0  24.5 1.5 0  24.75 1.5 0  25 1.5 0  0 1.75 0  0.25 1.75 0  0.5 1.75 0  0.75 1.75 0  1 1.75 0  1.25 1.75 0  1.5 1.75 0  1.75 1.75 0  2 1.75 0  2.25 1.75 0  2.5 1.75 0  2.75 1.75 0  3 1.75 0  3.25 1.75 0  3.5 1.75 0  3.75 1.75 0  4 1.75 0  4.25 1.75 0  4.5 1.75 0  4.75 1.75 0  5 1.75 0  5.25 1.75 0  5.5 1.75 0  5.75 1.75 0  6 1.75 0  6.25 1.75 0  6.5 1.75 0  6.75 1.75 0  7 1.75 0  7.25 1.75 0  7.5 1.75 0  7.75 1.75 0  8 1.75 0  8.25 1.75 0  8.5 1.75 0  8.75 1.75 0  9 1.75 0  9.25 1.75 0  9.5 1.75 0  9.75 1.75 0  10 1.75 0  10.25 1.75 0  10.5 1.75 0  10.75 1.75 0  11 1.75 0  11.25 1.75 0  11.5 1.75 0  11.75 1.75 0  12 1.75 0  12.25 1.75 0  12.5 1.75 0  12.75 1.75 0  13 1.75 0  13.25 1.75 0  13.5 1.75 0  13.75 1.75 0  14 1.75 0  14.25 1.75 0  14.5 1.75 0  14.75 1.75 0  15 1.75 0  15.25 1.75 0  15.5 1.75 0  15.75 1.75 0  16 1.75 0  16.25 1.75 0  16.5 1.75 0  16.75 1.75 0  17 1.75 0  17.25 1.75 0  17.5 1.75 0  17.75 1.75 0  18 1.75 0  18.25 1.75 0  18.5 1.75 0  18.75 1.75 0  19 1.75 0  19.25 1.75 0  19.5 1.75 0  19.75 1.75 0  20 1.75 0  20.25 1.75 0  20.5 1.75 0  20.75 1.75 0  21 1.75 0  21.25 1.75 0  21.5 1.75 0  21.75 1.75 0  22 1.75 0  22.25 1.75 0  22.5 1.75 0  22.75 1.75 0  23 1.75 0  23.25 1.75 0  23.5 1.75 0  23.75 1.75 0  24 1.75 0  24.25 1.75 0  24.5 1.75 0  24.75 1.75 0  25 1.75 0  0 2 0  0.25 2 0  0.5 2 0  0.75 2 0  1 2 0  1.25 2 0  1.5 2 0  1.75 2 0  2 2 0  2.25 2 0  2.5 2 0  2.75 2 0  3 2 0  3.25 2 0  3.5 2 0  3.75 2 0  4 2 0  4.25 2 0  4.5 2 0  4.75 2 0  5 2 0  5.25 2 0  5.5 2 0  5.75 2 0  6 2 0  6.25 2 0  6.5 2 0  6.75 2 0  7 2 0  7.25 2 0  7.5 2 0  7.75 2 0  8 2 0  8.25 2 0  8.5 2 0  8.75 2 0  9 2 0  9.25 2 0  9.5 2 0  9.75 2 0  10 2 0  10.25 2 0  10.5 2 0  10.75 2 0  11 2 0  11.25 2 0 
[...]
<PointData  Scalars="f_26"> 
<DataArray  type="Float64"  Name="f_26"  format="ascii">2.3783066703615273e-05  2.3786654527316497e-05  2.3795013935728875e-05  2.3808012519373782e-05  2.3825069312753524e-05  2.3845382101501487e-05  2.3868044635657257e-05  2.3892134744408920e-05  2.3916784792539524e-05  2.3941233331333536e-05  2.3964856722097161e-05  2.3987181856240027e-05  2.4007883203000361e-05  2.4026768566919518e-05  2.4043758104819402e-05  2.4058860594523584e-05  2.4072150001355713e-05  2.4083744348738936e-05  2.4093787966717416e-05  2.4102437468072188e-05  2.4109851309040825e-05  2.4116182505336870e-05  2.4121573947216812e-05  2.4126155739308269e-05  2.4130044038043161e-05  2.4133340938706826e-05  2.4136135052896011e-05  2.4138502502065910e-05  2.4140508126898799e-05  2.4142206772875355e-05  2.4143644559730824e-05  2.4144860077864981e-05  2.4145885480238913e-05  2.4146747455900904e-05  2.4147468082921962e-05  2.4148065565781194e-05  2.4148554866398653e-05  2.4148948240050306e-05  2.4149255688048031e-05  2.4149485338853761e-05  2.4149643768590044e-05  2.4149736270957609e-05  2.4149767085534458e-05  2.4149739592406610e-05  2.4149656480118847e-05  2.4149519893053926e-05  2.4149331563547412e-05  2.4149092933305198e-05  2.4148805267983605e-05  2.4148469768084662e-05  2.4148087678576012e-05  2.4147660398831941e-05  2.4147189593581622e-05  2.4146677304525466e-05  2.4146126061140360e-05  2.4145538987960783e-05  2.4144919904345529e-05  2.4144273411499490e-05  2.4143604960430775e-05  2.4142920893727282e-05  2.4142228453695062e-05  2.4141535749676903e-05  2.4140851678404873e-05  2.4140185793127549e-05  2.4139548120001603e-05  2.4138948923753459e-05  2.4138398428680360e-05  2.4137906505331391e-05  2.4137482337247189e-05  2.4137134085449161e-05  2.4136868570473466e-05  2.4136690992249101e-05  2.4136604706791514e-05  2.4136611075509218e-05  2.4136709398127725e-05  2.4136896934273890e-05  2.4137169012254566e-05  2.4137519217206857e-05  2.4137939645271683e-05  2.4138421206305493e-05  2.4138953955257492e-05  2.4139527431826648e-05  2.4140130989263513e-05  2.4140754095889820e-05  2.4141386596634962e-05  2.4142018926138035e-05  2.4142642269258895e-05  2.4143248668778418e-05  2.4143831083353916e-05  2.4144383401262132e-05  2.4144900417056333e-05  2.4145377779024975e-05  2.4145811915362775e-05  2.4146199946350064e-05  2.4146539588599292e-05  2.4146829055270916e-05  2.4147066951696629e-05  2.4147252153483509e-05  2.4147383610481442e-05  2.4147459840096174e-05  2.4147477060010813e-05  2.3786516341571657e-05  2.3789407482773369e-05  2.3797506162193850e-05  2.3810320991668410e-05  2.3827196899345411e-05  2.3847320104134182e-05  2.3869787223328132e-05  2.3893681920358502e-05  2.3918142228405445e-05  2.3942411255409968e-05  2.3965868577780112e-05  2.3988043021728972e-05  2.4008609899028126e-05  2.4027376997034680e-05  2.4044263827296451e-05  2.4059278101055417e-05  2.4072492467331880e-05  2.4084023517801474e-05  2.4094014134756391e-05  2.4102619536502822e-05  2.4109996882652628e-05  2.4116298015398215e-05  2.4121664785413829e-05  2.4126226392286468e-05  2.4130098215737675e-05  2.4133381692315654e-05  2.4136164880343852e-05  2.4138523440225969e-05  2.4140521830795144e-05  2.4142214582683897e-05  2.4143647556726447e-05  2.4144859130602917e-05  2.4145881282272798e-05  2.4146740556274471e-05  2.4147458910560876e-05  2.4148054448779937e-05  2.4148542047060814e-05  2.4148933886409502e-05  2.4149239902477070e-05  2.4149468164265007e-05  2.4149625192641884e-05  2.4149716228611205e-05  2.4149745460251259e-05  2.4149716216240743e-05  2.4149631132938821e-05  2.4149492301124727e-05  2.4149301397716896e-05  2.4149059807066264e-05  2.4148768735725009e-05  2.4148429323895767e-05  2.4148042756030341e-05  2.4147610372235862e-05  2.4147133781229504e-05  2.4146614974541569e-05  2.4146056440497877e-05  2.4145461275235863e-05  2.4144833286674154e-05  2.4144177086044180e-05  2.4143498160422648e-05  2.4142802918823642e-05  2.4142098703990656e-05  2.4141393762247538e-05  2.4140697164779959e-05  2.4140018675631607e-05  2.4139368564534493e-05  2.4138757366360285e-05  2.4138195593257006e-05  2.4137693410067249e-05  2.4137260287943782e-05  2.4136904654656989e-05  2.4136633562404526e-05  2.4136452394555360e-05  2.4136364631428479e-05  2.4136371691894369e-05  2.4136472862530559e-05  2.4136665319741344e-05  2.4136944243333006e-05  2.4137303013274251e-05  2.4137733475500689e-05  2.4138226258242321e-05  2.4138771117851740e-05  2.4139357292617049e-05  2.4139973844432179e-05  2.4140609971130936e-05  2.4141255276291752e-05  2.4141899987852904e-05  2.4142535121430857e-05  2.4143152588378553e-05  2.4143745252051161e-05  2.4144306938292733e-05  2.4144832407774201e-05  2.4145317298555635e-05  2.4145758047233732e-05  2.4146151796414081e-05  2.4146496295145973e-05  2.4146789797464705e-05  2.4147030962453807e-05  2.4147218758436575e-05  2.4147352382225922e-05  2.4147431271739662e-05  2.4147455703355230e-05  2.3794483519824676e-05  2.3797114923319277e-05  2.3804866700784306e-05  2.3817268572437801e-05  2.3833664004742419e-05  2.3853250766926481e-05  2.3875145324033373e-05  2.3898453504012654e-05  2.3922334078159687e-05  2.3946047436433786e-05  2.3968986105249474e-05  2.3990687434471857e-05  2.4010831242579569e-05  2.4029226495782233e-05  2.4045791350415018e-05  2.4060530402952086e-05  2.4073512107580518e-05  2.4084848329795007e-05  2.4094677105559074e-05  2.4103148971789504e-05  2.4110416751229959e-05  2.4116628391223548e-05  2.4121922327297790e-05  2.4126424820541699e-05  2.4130248760201858e-05  2.4133493497517446e-05  2.4136245361593074e-05  2.4138578589741830e-05  2.4140556476284495e-05  2.4142232602612468e-05  2.4143652057349544e-05  2.4144852589989831e-05  2.4145865666328137e-05  2.4146717411309421e-05  2.4147429436418027e-05  2.4148019555944107e-05  2.4148502400641193e-05  2.4148889939381312e-05  2.4149191920136124e-05  2.4149416241480311e-05  2.4149569265189406e-05  2.4149656079633745e-05  2.4149680722712003e-05  2.4149646372118229e-05  2.4149555509846397e-05  2.4149410067025866e-05  2.4149211554446618e-05  2.4148961183455734e-05  2.4148659981256525e-05  2.4148308903981536e-05  2.4147908950199376e-05  2.4147461276711917e-05  2.4146967317565782e-05  2.4146428906113786e-05  2.4145848398707627e-05  2.4145228797197361e-05  2.4144573865902007e-05  2.4143888237184714e-05  2.4143177498342744e-05  2.4142448251376664e-05  2.4141708136536126e-05  2.4140965810567751e-05  2.4140230871517097e-05  2.4139513723913697e-05  2.4138825381257022e-05  2.4138177206850829e-05  2.4137580598972399e-05  2.4137046631711543e-05  2.4136585668023556e-05  2.4136206965969367e-05  2.4135918302114480e-05  2.4135725637071564e-05  2.4135632846846743e-05  2.4135641539918887e-05  2.4135750974105254e-05  2.4135958079817523e-05  2.4136257588102623e-05  2.4136642253823008e-05  2.4137103157367013e-05  2.4137630063131716e-05  2.4138211810157885e-05  2.4138836709863922e-05  2.4139492927648515e-05  2.4140168828775632e-05  2.4140853273817968e-05  2.4141535854355854e-05  2.4142207064986248e-05  2.4142858412486577e-05  2.4143482466854783e-05  2.4144072861734964e-05  2.4144624253416538e-05  2.4145132248264724e-05  2.4145593308284054e-05  2.4146004643766514e-05  2.4146364100903790e-05  2.4146670051225298e-05  2.4146921289507928e-05  2.4147116949357738e-05  2.4147256456330162e-05  2.4147339568363741e-05  2.4147366596159219e-05  2.3806885498600374e-05  2.3809333576772397e-05  2.3816671752861074e-05  2.3828480698620831e-05  2.3844139187797041e-05  2.3862881405537355e-05  2.3883863016424683e-05  2.3906228809199772e-05  2.3929172917416806e-05  2.3951985099313105e-05  2.3974080056531663e-05  2.3995009975975327e-05  2.4014462805404725e-05  2.4032250032301287e-05  2.4048288022608443e-05  2.4062576556411627e-05  2.4075177387105468e-05  2.4086194725326554e-05  2.4095758700326840e-05  2.4104012180334793e-05  2.4111100868055370e-05  2.4117166309838744e-05  2.4122341327150121e-05  2.4126747351896774e-05  2.4130493183035048e-05  2.4133674749935563e-05  2.4136375547040159e-05  2.4138667481361227e-05  2.4140611942427845e-05  2.4142260960588313e-05  2.4143658363885844e-05  2.4144840877153519e-05  2.4145839131241547e-05  2.4146678567234587e-05  2.4147380231849490e-05  2.4147961467387840e-05  2.4148436503838761e-05  2.4148816962906355e-05  2.4149112284564346e-05  2.4149330086720668e-05  2.4149476468062140e-05  2.4149556263385674e-05  2.4149573259865933e-05  2.4149530381856519e-05  2.4149429851024579e-05  2.4149273327898135e-05  2.4149062040257675e-05  2.4148796903209691e-05  2.4148478635206701e-05  2.4148107873684215e-05  2.4147685293322009e-05  2.4147211729153918e-05  2.4146688305798566e-05  2.4146116572922345e-05  2.4145498645651730e-05  2.4144837347026936e-05  2.4144136347773076e-05  2.4143400296746128e-05  2.4142634933533722e-05  2.4141847173057381e-05  2.4141045150888814e-05  2.4140238217646163e-05  2.4139436871564986e-05  2.4138652620384341e-05  2.4137897767186831e-05  2.4137185119755702e-05  2.4136527629122845e-05  2.4135937969804354e-05  2.4135428081062594e-05  2.4135008694547810e-05  2.4134688877967981e-05  2.4134475626223383e-05  2.4134373530186890e-05  2.4134384548859020e-05  2.4134507903276385e-05  2.4134740101043150e-05  2.4135075089771036e-05  2.4135504527314419e-05  2.4136018147703948e-05  2.4136604195118152e-05  2.4137249894711629e-05  2.4137941928812305e-05  2.4138666889639829e-05  2.4139411684661950e-05  2.4140163877159858e-05  2.4140911951620210e-05  2.4141645500390520e-05  2.4142355333981240e-05  2.4143033522057694e-05  2.4143673375357589e-05  2.4144269380520733e-05  2.4144817100307135e-05  2.4145313051186719e-05  2.4145754569139705e-05  2.4146139673071868e-05  2.4146466933931460e-05  2.4146735356936983e-05  2.4146944284958036e-05  2.4147093333260677e-05  2.4147182365344604e-05  2.4147211491582478e-05  2.3823212577902040e-05  2.3825478843391858e-05  2.3832333744239203e-05  2.3843403037276979e-05  2.3858114638946560e-05  2.3875755929186842e-05  2.3895537815823706e-05  2.3916658677793107e-05  2.3938360839171938e-05  2.3959974072531926e-05  2.3980943470410217e-05  2.4000841807862347e-05  2.4019368622807553e-05  2.4036339420993825e-05  2.4051668717436054e-05  2.4065350278882001e-05  2.4077437212713651e-05  2.4088023708350947e-05  2.4097229455964110e-05  2.4105187141098103e-05  2.4112032973055068e-05  2.4117899936494736e-05  2.4122913324995281e-05  2.4127188081913689e-05  2.4130827501213911e-05  2.4133922900316903e-05  2.4136553948393646e-05  2.4138789404282934e-05  2.4140688081493661e-05  2.4142299910602301e-05  2.4143667011288442e-05  2.4144824718134457e-05  2.4145802527640591e-05  2.4146624950332141e-05  2.4147312262930538e-05  2.4147881162686594e-05  2.4148345330245360e-05  2.4148715909700947e-05  2.4149001915466363e-05  2.4149210575712614e-05  2.4149347621767281e-05  2.4149417532243381e-05  2.4149423739950862e-05  2.4149368808923314e-05  2.4149254588224914e-05  2.4149082348609247e-05  2.4148852907579961e-05  2.4148566747932710e-05  2.4148224134402190e-05  2.4147825232549082e-05  2.4147370233440877e-05  2.4146859486942540e-05  2.4146293645470348e-05  2.4145673818812853e-05  2.4145001739039177e-05  2.4144279932578536e-05  2.4143511894290688e-05  2.4142702255842545e-05  2.4141856938123842e-05  2.4140983275024539e-05  2.4140090093991467e-05  2.4139187737781152e-05  2.4138288012154685e-05  2.4137404046307330e-05  2.4136550056859914e-05  2.4135741012320422e-05  2.4134992202820880e-05  2.4134318729071337e-05  2.4133734933936385e-05  2.4133253808654535e-05  2.4132886412200383e-05  2.4132641345447672e-05  2.4132524320774493e-05  2.4132537862243627e-05  2.4132681161834926e-05  2.4132950104405577e-05  2.4133337459636580e-05  2.4133833224996443e-05  2.4134425091490738e-05  2.4135098995111142e-05  2.4135839712330802e-05  2.4136631457925825e-05  2.4137458447403371e-05  2.4138305393449368e-05  2.4139157914847357e-05  2.4140002845977915e-05  2.4140828444141673e-05  2.4141624499695207e-05  2.4142382359830172e-05  2.4143094880585795e-05  2.4143756323470689e-05  2.4144362213192252e-05  2.4144909171873584e-05  2.4145394743239547e-05  2.4145817218019259e-05  2.4146175469631005e-05  2.4146468807369900e-05  2.4146696852801139e-05  2.4146859442959378e-05  2.4146956557920393e-05  2.4146988253023346e-05  2.3842745422663404e-05  2.3844819374595304e-05  2.3851131620522138e-05  2.3861348966993198e-05  2.3874954236491431e-05  2.3891298096657139e-05  2.3909657998342910e-05  2.3929296961903551e-05  2.3949515529981972e-05  2.3969692017380547e-05  2.3989308667338888e-05  2.4007963757756339e-05  2.4025371574880010e-05  2.4041353255576869e-05  2.4055821814254292e-05  2.4068764398770596e-05  2.4080224202459786e-05  2.4090283719116578e-05  2.4099050326126744e-05  2.4106644609186479e-05  2.4113191432225446e-05  2.4118813500360728e-05  2.4123627033311157e-05  2.4127739126660682e-05  2.4131246396049888e-05  2.4134234548681207e-05  2.4136778588790029e-05  2.4138943426989639e-05  2.4140784720882413e-05  2.4142349822945748e-05  2.4143678750691268e-05  2.4144805124039210e-05  2.4145757036975293e-05  2.4146557846303817e-05  2.4147226871079063e-05  2.4147780003323345e-05  2.4148230234949585e-05  2.4148588108211995e-05  2.4148862098131845e-05  2.4149058935647306e-05  2.4149183880048624e-05  2.4149240948813661e-05  2.4149233112409569e-05  2.4149162461072246e-05  2.4149030350072446e-05  2.4148837529549931e-05  2.4148584264643932e-05  2.4148270451347837e-05  2.4147895733228381e-05  2.4147459623818207e-05  2.4146961639042937e-05  2.4146401443394930e-05  2.4145779012620999e-05  2.4145094814355958e-05  2.4144350006323601e-05  2.4143546649387400e-05  2.4142687929860880e-05  2.4141778382157925e-05  2.4140824099255145e-05  2.4139832914858002e-05  2.4138814538049367e-05  2.4137780619112603e-05  2.4136744724793631e-05  2.4135722203119616e-05  2.4134729922520134e-05  2.4133785877624001e-05  2.4132908664548019e-05  2.4132116841059799e-05  2.4131428200460187e-05  2.4130859000719938e-05  2.4130423200411615e-05  2.4130131758470221e-05  2.4129992054404875e-05  2.4130007478655862e-05  2.4130177229724749e-05  2.4130496336896937e-05  2.4130955907050666e-05  2.4131543573881829e-05  2.4132244110518853e-05  2.4133040154104597e-05  2.4133912984772630e-05  2.4134843301811550e-05  2.4135811945988161e-05  2.4136800527539366e-05  2.4137791932389738e-05  2.4138770692805898e-05  2.4139723221316233e-05  2.4140637917116093e-05  2.4141505161689661e-05  2.4142317224860191e-05  2.4143068104184688e-05  2.4143753320057815e-05  2.4144369686730197e-05  2.4144915076336450e-05  2.4145388189548479e-05  2.4145788343063325e-05  2.4146115281044143e-05  2.4146369014796319e-05  2.4146549691836156e-05  2.4146657491045521e-05  2.4146692534552947e-05  2.3864661131551297e-05  2.3866534964499658e-05  2.3872264163361369e-05  2.3881554929272653e-05  2.3893947423827941e-05  2.3908860924127302e-05  2.3925646148832504e-05  2.3943637843388910e-05  2.3962201539230920e-05  2.3980770115292545e-05  2.3998867972918216e-05  2.4016122758917342e-05  2.4032266224014703e-05  2.4047126786799516e-05  2.4060616693634127e-05  2.4072716468569348e-05  2.4083458836078896e-05  2.4092913664872122e-05  2.4101174866312292e-05  2.4108349670229255e-05  2.4114550327000323e-05  2.4119888044831329e-05  2.4124468842800850e-05  2.4128390954098183e-05  2.4131743421721884e-05  2.4134605567499357e-05  2.4137047067655711e-05  2.4139128423110054e-05  2.4140901663655255e-05  2.4142411168971639e-05  2.4143694525016866e-05  2.4144783362001939e-05  2.4145704140851380e-05  2.4146478869954282e-05  2.4147125744353258e-05  2.4147659706385285e-05  2.4148092931106085e-05  2.4148435242341279e-05  2.4148694466489598e-05  2.4148876731688249e-05  2.4148986719954919e-05  2.4149027879667801e-05  2.4149002605388719e-05  2.4148912391674355e-05  2.4148757967215712e-05  2.4148539415424420e-05  2.4148256287447041e-05  2.4147907713514218e-05  2.4147492518476030e-05  2.4147009347272350e-05  2.4146456805847708e-05  2.4145833622532450e-05  2.4145138834044938e-05  2.4144371998880557e-05  2.4143533438803569e-05  2.4142624506333606e-05  2.4141647872464388e-05  2.4140607824409286e-05  2.4139510558120233e-05  2.4138364445038711e-05  2.4137180247584646e-05  2.4135971254051081e-05  2.4134753301784411e-05  2.4133544658775805e-05  2.4132365738930588e-05  2.4131238635842833e-05  2.4130186473835990e-05  2.4129232592533093e-05  2.4128399600645545e-05  2.4127708353618910e-05  2.4127176925380540e-05  2.4126819653835777e-05  2.4126646340675821e-05  2.4126661677345581e-05  2.4126864951042040e-05  2.4127250059341216e-05  2.4127805832780852e-05  2.4128516635503631e-05  2.4129363188926977e-05  2.4130323545619158e-05  2.4131374132062045e-05  2.4132490780111851e-05  2.4133649676575294e-05  2.4134828176125290e-05  2.4136005441938411e-05  2.4137162898089585e-05  2.4138284495486341e-05  2.4139356807305639e-05  2.4140368979683066e-05  2.4141312568728460e-05  2.4142181296313008e-05  2.4142970755352385e-05  2.4143678091497008e-05  2.4144301683195855e-05  2.4144840836830936e-05  2.4145295508610149e-05  2.4145666060486964e-05  2.4145953053615180e-05  2.4146157079602125e-05  2.4146278626999205e-05  2.4146317978847702e-05  2.3888111337706004e-05  2.3889783153321091e-05  2.3894910711464211e-05  2.3903238376207975e-05  2.3914363843930569e-05  2.3927776670034723e-05  2.3942903549148836e-05  2.3959154240866998e-05  2.3975962766344126e-05  2.3992819997024522e-05  2.4009295631590012e-05  2.4025049381068771e-05  2.4039832618713516e-05  2.4053482631421961e-05  2.4065911929959461e-05  2.4077094949416798e-05  2.4087054063872914e-05  2.4095846310936857e-05  2.4103551696564280e-05  2.4110263504265755e-05  2.4116080698295862e-05  2.4121102289218025e-05  2.4125423405983699e-05  2.4129132767706912e-05  2.4132311246890019e-05  2.4135031243847704e-05  2.4137356634357618e-05  2.4139343098871187e-05  2.4141038685702162e-05  2.4142484499211140e-05  2.4143715435873561e-05  2.4144760916246662e-05  2.4145645579897802e-05  2.4146389924276328e-05  2.4147010878316810e-05  2.4147522308196183e-05  2.4147935456946349e-05  2.4148259322213351e-05  2.4148500977880335e-05  2.4148665845935313e-05  2.4148757925163806e-05  2.4148779983196788e-05  2.4148733718296731e-05  2.4148619897121319e-05  2.4148438474628920e-05  2.4148188702315001e-05  2.4147869231100314e-05  2.4147478215410038e-05  2.4147013425241897e-05  2.4146472373244028e-05  2.4145852463900925e-05  2.4145151171713090e-05  2.4144366254573508e-05  2.4143496007183310e-05  2.4142539557089888e-05  2.4141497202567829e-05  2.4140370786950022e-05  2.4139164098123148e-05  2.4137883274885425e-05  2.4136537194140239e-05  2.4135137805200772e-05  2.4133700370879673e-05  2.4132243570902297e-05  2.4130789423041420e-05  2.4129362982681021e-05  2.4127991793324904e-05  2.4126705079139573e-05  2.4125532695099508e-05  2.4124503878504610e-05  2.4123645874117158e-05  2.4122982529594486e-05  2.4122532973777190e-05  2.4122310493978771e-05  2.4122321717621558e-05  2.4122566178620135e-05  2.4123036312605977e-05  2.4123717882351776e-05  2.4124590791780736e-05  2.4125630209963029e-05  2.4126807900553551e-05  2.4128093640157396e-05  2.4129456611564056e-05  2.4130866672772957e-05  2.4132295426641347e-05  2.4133717044402747e-05  2.4135108824895545e-05  2.4136451496568001e-05  2.4137729288858320e-05  2.4138929812360334e-05  2.4140043793395982e-05  2.4141064709171769e-05  2.4141988366008880e-05  2.4142812456745649e-05  2.4143536125735927e-05  2.4144159562049443e-05  2.4144683634320273e-05  2.4145109574645818e-05  2.4145438714185026e-05  2.4145672269643359e-05  2.4145811177703760e-05  2.4145855974048528e-05  2.3912285369315195e-05  2.3913759206644976e-05  2.3918287415690647e-05  2.3925650768151219e-05  2.3935502780743017e-05  2.3947402031187278e-05  2.3960850535687149e-05  2.3975333028274618e-05  2.3990352543847707e-05  2.4005458936555725e-05  2.4020268524118292e-05  2.4034474580103318e-05  2.4047849622415332e-05  2.4060241222013809e-05  2.4071563369335961e-05  2.4081785371713825e-05  2.4090919943714862e-05  2.4099011725458509e-05  2.4106127026292411e-05  2.4112345209870677e-05  2.4117751843365976e-05  2.4122433533417689e