<?xml version="1.0"?>
<VTKFile type="UnstructuredGrid"  version="0.1"  >
<UnstructuredGrid>
<Piece  NumberOfPoints="10201" NumberOfCells="20000">
<Points>
<DataArray  type="Float64"  NumberOfComponents="3"  format="ascii">0 0 0  0.25 0 0  0.5 0 0  0.75 0 0  1 0 0  1.25 0 0  1.5 0 0  1.75 0 0  2 0 0  2.25 0 0  2.5 0 0  2.75 0 0  3 0 0  3.25 0 0  3.5 0 0  3.75 0 0  4 0 0  4.25 0 0  4.5 0 0  4.75 0 0  5 0 0  5.25 0 0  5.5 0 0  5.75 0 0  6 0 0  6.25 0 0  6.5 0 0  6.75 0 0  7 0 0  7.25 0 0  7.5 0 0  7.75 0 0  8 0 0  8.25 0 0  8.5 0 0  8.75 0 0  9 0 0  9.25 0 0  9.5 0 0  9.75 0 0  10 0 0  10.25 0 0  10.5 0 0  10.75 0 0  11 0 0  11.25 0 0  11.5 0 0  11.75 0 0  12 0 0  12.25 0 0  12.5 0 0  12.75 0 0  13 0 0  13.25 0 0  13.5 0 0  13.75 0 0  14 0 0  14.25 0 0  14.5 0 0  14.75 0 0  15 0 0  15.25 0 0  15.5 0 0  15.75 0 0  16 0 0  16.25 0 0  16.5 0 0  16.75 0 0  17 0 0  17.25 0 0  17.5 0 0  17.75 0 0  18 0 0  18.25 0 0  18.5 0 0  18.75 0 0  19 0 0  19.25 0 0  19.5 0 0  19.75 0 0  20 0 0  20.25 0 0  20.5 0 0  20.75 0 0  21 0 0  21.25 0 0  21.5 0 0  21.75 0 0  22 0 0  22.25 0 0  22.5 0 0  22.75 0 0  23 0 0  23.25 0 0  23.5 0 0  23.75 0 0  24 0 0  24.25 0 0  24.5 0 0  24.75 0 0  25 0 0  0 0.25 0  0.25 0.25 0  0.5 0.25 0  0.75 0.25 0  1 0.25 0  1.25 0.25 0  1.5 0.25 0  1.75 0.25 0  2 0.25 0  2.25 0.25 0  2.5 0.25 0  2.75 0.25 0  3 0.25 0  3.25 0.25 0  3.5 0.25 0  3.75 0.25 0  4 0.25 0  4.25 0.25 0  4.5 0.25 0  4.75 0.25 0  5 0.25 0  5.25 0.25 0  5.5 0.25 0  5.75 0.25 0  6 0.25 0  6.25 0.25 0  6.5 0.25 0  6.75 0.25 0  7 0.25 0  7.25 0.25 0  7.5 0.25 0  7.75 0.25 0  8 0.25 0  8.25 0.25 0  8.5 0.25 0  8.75 0.25 0  9 0.25 0  9.25 0.25 0  9.5 0.25 0  9.75 0.25 0  10 0.25 0  10.25 0.25 0  10.5 0.25 0  10.75 0.25 0  11 0.25 0  11.25 0.25 0  11.5 0.25 0  11.75 0.25 0  12 0.25 0  12.25 0.25 0  12.5 0.25 0  12.75 0.25 0  13 0.25 0  13.25 0.25 0  13.5 0.25 0  13.75 0.25 0  14 0.25 0  14.25 0.25 0  14.5 0.25 0  14.75 0.25 0  15 0.25 0  15.25 0.25 0  15.5 0.25 0  15.75 0.25 0  16 0.25 0  16.25 0.25 0  16.5 0.25 0  16.75 0.25 0  17 0.25 0  17.25 0.25 0  17.5 0.25 0  17.75 0.25 0  18 0.25 0  18.25 0.25 0  18.5 0.25 0  18.75 0.25 0  19 0.25 0  19.25 0.25 0  19.5 0.25 0  19.75 0.25 0  20 0.25 0  20.25 0.25 0  20.5 0.25 0  20.75 0.25 0  21 0.25 0  21.25 0.25 0  21.5 0.25 0  21.75 0.25 0  22 0.25 0  22.25 0.25 0  22.5 0.25 0  22.75 0.25 0  23 0.25 0  23.25 0.25 0  23.5 0.25 0  23.75 0.25 0  24 0.25 0  24.25 0.25 0  24.5 0.25 0  24.75 0.25 0  25 0.25 0  0 0.5 0  0.25 0.5 0  0.5 0.5 0  0.75 0.5 0  1 0.5 0  1.25 0.5 0  1.5 0.5 0  1.75 0.5 0  2 0.5 0  2.25 0.5 0  2.5 0.5 0  2.75 0.5 0  3 0.5 0  3.25 0.5 0  3.5 0.5 0  3.75 0.5 0  4 0.5 0  4.25 0.5 0  4.5 0.5 0  4.75 0.5 0  5 0.5 0  5.25 0.5 0  5.5 0.5 0  5.75 0.5 0  6 0.5 0  6.25 0.5 0  6.5 0.5 0  6.75 0.5 0  7 0.5 0  7.25 0.5 0  7.5 0.5 0  7.75 0.5 0  8 0.5 0  8.25 0.5 0  8.5 0.5 0  8.75 0.5 0  9 0.5 0  9.25 0.5 0  9.5 0.5 0  9.75 0.5 0  10 0.5 0  10.25 0.5 0  10.5 0.5 0  10.75 0.5 0  11 0.5 0  11.25 0.5 0  11.5 0.5 0  11.75 0.5 0  12 0.5 0  12.25 0.5 0  12.5 0.5 0  12.75 0.5 0  13 0.5 0  13.25 0.5 0  13.5 0.5 0  13.75 0.5 0  14 0.5 0  14.25 0.5 0  14.5 0.5 0  14.75 0.5 0  15 0.5 0  15.25 0.5 0  15.5 0.5 0  15.75 0.5 0  16 0.5 0  16.25 0.5 0  16.5 0.5 0  16.75 0.5 0  17 0.5 0  17.25 0.5 0  17.5 0.5 0  17.75 0.5 0  18 0.5 0  18.25 0.5 0  18.5 0.5 0  18.75 0.5 0  19 0.5 0  19.25 0.5 0  19.5 0.5 0  19.75 0.5 0  20 0.5 0  20.25 0.5 0  20.5 0.5 0  20.75 0.5 0  21 0.5 0  21.25 0.5 0  21.5 0.5 0  21.75 0.5 0  22 0.5 0  22.25 0.5 0  22.5 0.5 0  22.75 0.5 0  23 0.5 0  23.25 0.5 0  23.5 0.5 0  23.75 0.5 0  24 0.5 0  24.25 0.5 0  24.5 0.5 0  24.75 0.5 0  25 0.5 0  0 0.75 0  0.25 0.75 0  0.5 0.75 0  0.75 0.75 0  1 0.75 0  1.25 0.75 0  1.5 0.75 0  1.75 0.75 0  2 0.75 0  2.25 0.75 0  2.5 0.75 0  2.75 0.75 0  3 0.75 0  3.25 0.75 0  3.5 0.75 0  3.75 0.75 0  4 0.75 0  4.25 0.75 0  4.5 0.75 0  4.75 0.75 0  5 0.75 0  5.25 0.75 0  5.5 0.75 0  5.75 0.75 0  6 0.75 0  6.25 0.75 0  6.5 0.75 0  6.75 0.75 0  7 0.75 0  7.25 0.75 0  7.5 0.75 0  7.75 0.75 0  8 0.75 0  8.25 0.75 0  8.5 0.75 0  8.75 0.75 0  9 0.75 0  9.25 0.75 0  9.5 0.75 0  9.75 0.75 0  10 0.75 0  10.25 0.75 0  10.5 0.75 0  10.75 0.75 0  11 0.75 0  11.25 0.75 0  11.5 0.75 0  11.75 0.75 0  12 0.75 0  12.25 0.75 0  12.5 0.75 0  12.75 0.75 0  13 0.75 0  13.25 0.75 0  13.5 0.75 0  13.75 0.75 0  14 0.75 0  14.25 0.75 0  14.5 0.75 0  14.75 0.75 0  15 0.75 0  15.25 0.75 0  15.5 0.75 0  15.75 0.75 0  16 0.75 0  16.25 0.75 0  16.5 0.75 0  16.75 0.75 0  17 0.75 0  17.25 0.75 0  17.5 0.75 0  17.75 0.75 0  18 0.75 0  18.25 0.75 0  18.5 0.75 0  18.75 0.75 0  19 0.75 0  19.25 0.75 0  19.5 0.75 0  19.75 0.75 0  20 0.75 0  20.25 0.75 0  20.5 0.75 0  20.75 0.75 0  21 0.75 0  21.25 0.75 0  21.5 0.75 0  21.75 0.75 0  22 0.75 0  22.25 0.75 0  22.5 0.75 0  22.75 0.75 0  23 0.75 0  23.25 0.75 0  23.5 0.75 0  23.75 0.75 0  24 0.75 0  24.25 0.75 0  24.5 0.75 0  24.75 0.75 0  25 0.75 0  0 1 0  0.25 1 0  0.5 1 0  0.75 1 0  1 1 0  1.25 1 0  1.5 1 0  1.75 1 0  2 1 0  2.25 1 0  2.5 1 0  2.75 1 0  3 1 0  3.25 1 0  3.5 1 0  3.75 1 0  4 1 0  4.25 1 0  4.5 1 0  4.75 1 0  5 1 0  5.25 1 0  5.5 1 0  5.75 1 0  6 1 0  6.25 1 0  6.5 1 0  6.75 1 0  7 1 0  7.25 1 0  7.5 1 0  7.75 1 0  8 1 0  8.25 1 0  8.5 1 0  8.75 1 0  9 1 0  9.25 1 0  9.5 1 0  9.75 1 0  10 1 0  10.25 1 0  10.5 1 0  10.75 1 0  11 1 0  11.25 1 0  11.5 1 0  11.75 1 0  12 1 0  12.25 1 0  12.5 1 0  12.75 1 0  13 1 0  13.25 1 0  13.5 1 0  13.75 1 0  14 1 0  14.25 1 0  14.5 1 0  14.75 1 0  15 1 0  15.25 1 0  15.5 1 0  15.75 1 0  16 1 0  16.25 1 0  16.5 1 0  16.75 1 0  17 1 0  17.25 1 0  17.5 1 0  17.75 1 0  18 1 0  18.25 1 0  18.5 1 0  18.75 1 0  19 1 0  19.25 1 0  19.5 1 0  19.75 1 0  20 1 0  20.25 1 0  20.5 1 0  20.75 1 0  21 1 0  21.25 1 0  21.5 1 0  21.75 1 0  22 1 0  22.25 1 0  22.5 1 0  22.75 1 0  23 1 0  23.25 1 0  23.5 1 0  23.75 1 0  24 1 0  24.25 1 0  24.5 1 0  24.75 1 0  25 1 0  0 1.25 0  0.25 1.25 0  0.5 1.25 0  0.75 1.25 0  1 1.25 0  1.25 1.25 0  1.5 1.25 0  1.75 1.25 0  2 1.25 0  2.25 1.25 0  2.5 1.25 0  2.75 1.25 0  3 1.25 0  3.25 1.25 0  3.5 1.25 0  3.75 1.25 0  4 1.25 0  4.25 1.25 0  4.5 1.25 0  4.75 1.25 0  5 1.25 0  5.25 1.25 0  5.5 1.25 0  5.75 1.25 0  6 1.25 0  6.25 1.25 0  6.5 1.25 0  6.75 1.25 0  7 1.25 0  7.25 1.25 0  7.5 1.25 0  7.75 1.25 0  8 1.25 0  8.25 1.25 0  8.5 1.25 0  8.75 1.25 0  9 1.25 0  9.25 1.25 0  9.5 1.25 0  9.75 1.25 0  10 1.25 0  10.25 1.25 0  10.5 1.25 0  10.75 1.25 0  11 1.25 0  11.25 1.25 0  11.5 1.25 0  11.75 1.25 0  12 1.25 0  12.25 1.25 0  12.5 1.25 0  12.75 1.25 0  13 1.25 0  13.25 1.25 0  13.5 1.25 0  13.75 1.25 0  14 1.25 0  14.25 1.25 0  14.5 1.25 0  14.75 1.25 0  15 1.25 0  15.25 1.25 0  15.5 1.25 0  15.75 1.25 0  16 1.25 0  16.25 1.25 0  16.5 1.25 0  16.75 1.25 0  17 1.25 0  17.25 1.25 0  17.5 1.25 0  17.75 1.25 0  18 1.25 0  18.25 1.25 0  18.5 1.25 0  18.75 1.25 0  19 1.25 0  19.25 1.25 0  19.5 1.25 0  19.75 1.25 0  20 1.25 0  20.25 1.25 0  20.5 1.25 0  20.75 1.25 0  21 1.25 0  21.25 1.25 0  21.5 1.25 0  21.75 1.25 0  22 1.25 0  22.25 1.25 0  22.5 1.25 0  22.75 1.25 0  23 1.25 0  23.25 1.25 0  23.5 1.25 0  23.75 1.25 0  24 1.25 0  24.25 1.25 0  24.5 1.25 0  24.75 1.25 0  25 1.25 0  0 1.5 0  0.25 1.5 0  0.5 1.5 0  0.75 1.5 0  1 1.5 0  1.25 1.5 0  1.5 1.5 0  1.75 1.5 0  2 1.5 0  2.25 1.5 0  2.5 1.5 0  2.75 1.5 0  3 1.5 0  3.25 1.5 0  3.5 1.5 0  3.75 1.5 0  4 1.5 0  4.25 1.5 0  4.5 1.5 0  4.75 1.5 0  5 1.5 0  5.25 1.5 0  5.5 1.5 0  5.75 1.5 0  6 1.5 0  6.25 1.5 0  6.5 1.5 0  6.75 1.5 0  7 1.5 0  7.25 1.5 0  7.5 1.5 0  7.75 1.5 0  8 1.5 0  8.25 1.5 0  8.5 1.5 0  8.75 1.5 0  9 1.5 0  9.25 1.5 0  9.5 1.5 0  9.75 1.5 0  10 1.5 0  10.25 1.5 0  10.5 1.5 0  10.75 1.5 0  11 1.5 0  11.25 1.5 0  11.5 1.5 0  11.75 1.5 0  12 1.5 0  12.25 1.5 0  12.5 1.5 0  12.75 1.5 0  13 1.5 0  13.25 1.5 0  13.5 1.5 0  13.75 1.5 0  14 1.5 0  14.25 1.5 0  14.5 1.5 0  14.75 1.5 0  15 1.5 0  15.25 1.5 0  15.5 1.5 0  15.75 1.5 0  16 1.5 0  16.25 1.5 0  16.5 1.5 0  16.75 1.5 0  17 1.5 0  17.25 1.5 0  17.5 1.5 0  17.75 1.5 0  18 1.5 0  18.25 1.5 0  18.5 1.5 0  18.75 1.5 0  19 1.5 0  19.25 1.5 0  19.5 1.5 0  19.75 1.5 0  20 1.5 0  20.25 1.5 0  20.5 1.5 0  20.75 1.5 0  21 1.5 0  21.25 1.5 0  21.5 1.5 0  21.75 1.5 0  22 1.5 0  22.25 1.5 0  22.5 1.5 0  22.75 1.5 0  23 1.5 0  23.25 1.5 0  23.5 1.5 0  23.75 1.5 0  24 1.5 0  24.25 1.5 0  24.5 1.5 0  24.75 1.5 0  25 1.5 0  0 1.75 0  0.25 1.75 0  0.5 1.75 0  0.75 1.75 0  1 1.75 0  1.25 1.75 0  1.5 1.75 0  1.75 1.75 0  2 1.75 0  2.25 1.75 0  2.5 1.75 0  2.75 1.75 0  3 1.75 0  3.25 1.75 0  3.5 1.75 0  3.75 1.75 0  4 1.75 0  4.25 1.75 0  4.5 1.75 0  4.75 1.75 0  5 1.75 0  5.25 1.75 0  5.5 1.75 0  5.75 1.75 0  6 1.75 0  6.25 1.75 0  6.5 1.75 0  6.75 1.75 0  7 1.75 0  7.25 1.75 0  7.5 1.75 0  7.75 1.75 0  8 1.75 0  8.25 1.75 0  8.5 1.75 0  8.75 1.75 0  9 1.75 0  9.25 1.75 0  9.5 1.75 0  9.75 1.75 0  10 1.75 0  10.25 1.75 0  10.5 1.75 0  10.75 1.75 0  11 1.75 0  11.25 1.75 0  11.5 1.75 0  11.75 1.75 0  12 1.75 0  12.25 1.75 0  12.5 1.75 0  12.75 1.75 0  13 1.75 0  13.25 1.75 0  13.5 1.75 0  13.75 1.75 0  14 1.75 0  14.25 1.75 0  14.5 1.75 0  14.75 1.75 0  15 1.75 0  15.25 1.75 0  15.5 1.75 0  15.75 1.75 0  16 1.75 0  16.25 1.75 0  16.5 1.75 0  16.75 1.75 0  17 1.75 0  17.25 1.75 0  17.5 1.75 0  17.75 1.75 0  18 1.75 0  18.25 1.75 0  18.5 1.75 0  18.75 1.75 0  19 1.75 0  19.25 1.75 0  19.5 1.75 0  19.75 1.75 0  20 1.75 0  20.25 1.75 0  20.5 1.75 0  20.75 1.75 0  21 1.75 0  21.25 1.75 0  21.5 1.75 0  21.75 1.75 0  22 1.75 0  22.25 1.75 0  22.5 1.75 0  22.75 1.75 0  23 1.75 0  23.25 1.75 0  23.5 1.75 0  23.75 1.75 0  24 1.75 0  24.25 1.75 0  24.5 1.75 0  24.75 1.75 0  25 1.75 0  0 2 0  0.25 2 0  0.5 2 0  0.75 2 0  1 2 0  1.25 2 0  1.5 2 0  1.75 2 0  2 2 0  2.25 2 0  2.5 2 0  2.75 2 0  3 2 0  3.25 2 0  3.5 2 0  3.75 2 0  4 2 0  4.25 2 0  4.5 2 0  4.75 2 0  5 2 0  5.25 2 0  5.5 2 0  5.75 2 0  6 2 0  6.25 2 0  6.5 2 0  6.75 2 0  7 2 0  7.25 2 0  7.5 2 0  7.75 2 0  8 2 0  8.25 2 0  8.5 2 0  8.75 2 0  9 2 0  9.25 2 0  9.5 2 0  9.75 2 0  10 2 0  10.25 2 0  10.5 2 0  10.75 2 0  11 2 0  11.25 2 0 
[...]
<PointData  Scalars="f_26"> 
<DataArray  type="Float64"  Name="f_26"  format="ascii">2.6584933565848560e-05  2.6565619036662131e-05  2.6522237794486614e-05  2.6450564085052264e-05  2.6346931731960575e-05  2.6207550941502979e-05  2.6028999109137568e-05  2.5809251986059389e-05  2.5548989578927916e-05  2.5252804904563998e-05  2.4929762482205722e-05  2.4592643753181944e-05  2.4256954610098617e-05  2.3942836784444584e-05  2.3679693557496693e-05  2.3478038262303720e-05  2.3318698450566507e-05  2.3195972938124635e-05  2.3108428994347990e-05  2.3052631269503761e-05  2.3023337283974417e-05  2.3014571169450238e-05  2.3020454385028972e-05  2.3035709212527189e-05  2.3056030974112578e-05  2.3078383302995072e-05  2.3101108385412009e-05  2.3123791715432460e-05  2.3146946186505843e-05  2.3171627581888678e-05  2.3199059575334777e-05  2.3230300488669791e-05  2.3265967563643991e-05  2.3306041565166917e-05  2.3349778821426594e-05  2.3395743087470559e-05  2.3441942234948367e-05  2.3486032520859220e-05  2.3525546830270900e-05  2.3558110908979053e-05  2.3581625637614913e-05  2.3594407410261416e-05  2.3595288964245707e-05  2.3583688125388510e-05  2.3559652138903354e-05  2.3523881711868344e-05  2.3477732890082236e-05  2.3423187620033122e-05  2.3362776820501213e-05  2.3299435680518523e-05  2.3236274459295493e-05  2.3176265961911297e-05  2.3121886852205362e-05  2.3074793481527411e-05  2.3035633631361910e-05  2.3004063286139301e-05  2.2978957321396640e-05  2.2958723624975265e-05  2.2941604838038828e-05  2.2925886137836396e-05  2.2909987173497857e-05  2.2892443935462108e-05  2.2871837219919722e-05  2.2846551448429381e-05  2.2814792651085951e-05  2.2773073554821498e-05  2.2719156703122260e-05  2.2635494054046256e-05  2.2533145490015363e-05  2.2248305781795993e-05  2.1868325761623468e-05  2.2073508032337316e-05  2.2410605754274226e-05  2.2786362839611972e-05  2.3178107893962682e-05  2.3563191527508139e-05  2.3921113845544452e-05  2.4236695083343306e-05  2.4502269625723278e-05  2.4717168039858284e-05  2.4885645613049543e-05  2.5014518437887951e-05  2.5111286126108111e-05  2.5182971172651325e-05  2.5235572574107971e-05  2.5273925445810151e-05  2.5301778959202063e-05  2.5321964742110828e-05  2.5336583169381552e-05  2.5347173036158356e-05  2.5354852242580392e-05  2.5360428309037120e-05  2.5364482303597799e-05  2.5367431170854442e-05  2.5369573310874168e-05  2.5371121526266326e-05  2.5372226593433135e-05  2.5372993905741397e-05  2.5373494902203212e-05  2.5373774149739446e-05  2.5373851078511010e-05  2.6556237274889984e-05  2.6540961378648216e-05  2.6498111402554837e-05  2.6426022338830737e-05  2.6321676055889311e-05  2.6181552816580445e-05  2.6002441204903601e-05  2.5782521884501999e-05  2.5522650651615137e-05  2.5227514617986419e-05  2.4906123986556961e-05  2.4571065757299009e-05  2.4237761804254900e-05  2.3925888352711544e-05  2.3664130882260829e-05  2.3464811444254089e-05  2.3306774308058531e-05  2.3185021427982414e-05  2.3098889683054545e-05  2.3044849525444987e-05  2.3017449664373489e-05  2.3010445877399220e-05  2.3017767505817530e-05  2.3034066197699415e-05  2.3055065914684720e-05  2.3077813279827959e-05  2.3100748185833833e-05  2.3123542975803796e-05  2.3146774720369584e-05  2.3171539325982419e-05  2.3199081215467165e-05  2.3230466896390283e-05  2.3266315492208256e-05  2.3306607575902611e-05  2.3350598969886776e-05  2.3396852404257707e-05  2.3443373114984017e-05  2.3487812157196442e-05  2.3527694361454453e-05  2.3560634963069121e-05  2.3584522652995447e-05  2.3597660728576094e-05  2.3598868408975555e-05  2.3587549701925529e-05  2.3563737636187755e-05  2.3528118312821189e-05  2.3482033330175818e-05  2.3427451842155330e-05  2.3366896268862193e-05  2.3303301133426185e-05  2.3239787428891702e-05  2.3179352107268221e-05  2.3124507856668572e-05  2.3076952583787743e-05  2.3037371181815180e-05  2.3005442828798561e-05  2.2980047463347946e-05  2.2959582605968577e-05  2.2942271844158263e-05  2.2926379525668919e-05  2.2910305636987872e-05  2.2892572395549043e-05  2.2871738737457422e-05  2.2846205720196694e-05  2.2814057285244093e-05  2.2772199678814619e-05  2.2716883488310628e-05  2.2635914165596604e-05  2.2523750363716557e-05  2.2261201563266114e-05  2.1883881068264629e-05  2.2074768422702665e-05  2.2410810130629153e-05  2.2786187759631046e-05  2.3177658653673677e-05  2.3562733393358923e-05  2.3920939823649298e-05  2.4236882932555610e-05  2.4502751702677447e-05  2.4717816476736553e-05  2.4886336929968668e-05  2.5015165488730741e-05  2.5111842736310268e-05  2.5183422829503438e-05  2.5235924035504656e-05  2.5274190628211996e-05  2.5301974416615156e-05  2.5322106175629523e-05  2.5336683946598351e-05  2.5347243844614266e-05  2.5354901289159399e-05  2.5360461724560927e-05  2.5364504578465249e-05  2.5367445545549683e-05  2.5369582097438444e-05  2.5371126363193846e-05  2.5372228653107153e-05  2.5372994103481249e-05  2.5373494274843066e-05  2.5373775127574535e-05  2.5373863108360905e-05  2.6484297979125724e-05  2.6469568922516997e-05  2.6426183272662397e-05  2.6352616056728527e-05  2.6246235877892609e-05  2.6103954766588806e-05  2.5923061874986934e-05  2.5702300346613210e-05  2.5443080450594900e-05  2.5150507773018793e-05  2.4833694753757279e-05  2.4504982185245801e-05  2.4179649733790523e-05  2.3877426275414495e-05  2.3626504741813965e-05  2.3434424756388726e-05  2.3280813872017212e-05  2.3163560407600948e-05  2.3081889437614168e-05  2.3031973244876766e-05  2.3008138014524357e-05  2.3003980362413544e-05  2.3013399690273782e-05  2.3031124586362071e-05  2.3053023350383314e-05  2.3076308527732568e-05  2.3099571181432674e-05  2.3122601692597449e-05  2.3146060072322464e-05  2.3171096903500099e-05  2.3198991454777635e-05  2.3230831614132188e-05  2.3267248105135923e-05  2.3308225087548001e-05  2.3353014705052061e-05  2.3400169111104602e-05  2.3447676514122592e-05  2.3493165330661972e-05  2.3534133400758049e-05  2.3568166003175885e-05  2.3593120024308271e-05  2.3607265726023941e-05  2.3609388212438725e-05  2.3598856239961542e-05  2.3575666580953639e-05  2.3540468870210684e-05  2.3494569992358318e-05  2.3439909680988645e-05  2.3378991431919758e-05  2.3314747664846776e-05  2.3250320215087342e-05  2.3188753748157774e-05  2.3132634826939736e-05  2.3083753659920614e-05  2.3042890402873344e-05  2.3009802869381752e-05  2.2983417282230396e-05  2.2962140343821787e-05  2.2944174459574187e-05  2.2927744974115104e-05  2.2911207097984430e-05  2.2893039474330128e-05  2.2871764255602944e-05  2.2845740454099770e-05  2.2813047772943140e-05  2.2770436086910181e-05  2.2714521748259664e-05  2.2631672896276501e-05  2.2519748802086677e-05  2.2251259279485727e-05  2.1886987769511733e-05  2.2077159391225007e-05  2.2412682319310148e-05  2.2787848933845232e-05  2.3179136934288628e-05  2.3564075311548888e-05  2.3922211008856159e-05  2.4238106949646002e-05  2.4503908443551950e-05  2.4718867115522647e-05  2.4887247800571797e-05  2.5015920188145672e-05  2.5112443040121797e-05  2.5183883592768993e-05  2.5236266808063243e-05  2.5274438519004402e-05  2.5302148895894786e-05  2.5322225548840126e-05  2.5336762951459394e-05  2.5347293872116572e-05  2.5354930878779829e-05  2.5360477126274475e-05  2.5364510276505400e-05  2.5367444702157839e-05  2.5369576909988616e-05  2.5371118346589125e-05  2.5372218871094324e-05  2.5372983386401559e-05  2.5373483480627196e-05  2.5373765466048144e-05  2.5373855892002311e-05  2.6364156879407733e-05  2.6349118425985182e-05  2.6304370493389820e-05  2.6228448701416548e-05  2.6119103175959860e-05  2.5973834555568261e-05  2.5790690477494966e-05  2.5569282324354449e-05  2.5311867555151157e-05  2.5024162067680097e-05  2.4715360580068025e-05  2.4397565227009820e-05  2.4085937835802846e-05  2.3800671555830577e-05  2.3568090584957665e-05  2.3387082766435732e-05  2.3241463039805331e-05  2.3132209648774877e-05  2.3057990714687669e-05  2.3014641379911218e-05  2.2996146239520999e-05  2.2995971911601685e-05  2.3008108086565699e-05  2.3027518833695023e-05  2.3050370525872260e-05  2.3074163060016318e-05  2.3097718416456407e-05  2.3120988246549876e-05  2.3144735003111309e-05  2.3170172267708714e-05  2.3198619073490466e-05  2.3231188764099947e-05  2.3268526237152210e-05  2.3310618792385576e-05  2.3356710475426204e-05  2.3405334399060797e-05  2.3454449779108597e-05  2.3501647775810027e-05  2.3544382890713246e-05  2.3580193152410249e-05  2.3606885878520087e-05  2.3622680178253542e-05  2.3626308422370810e-05  2.3617084756613397e-05  2.3594949464485893e-05  2.3560494796845570e-05  2.3514972068879338e-05  2.3460272364335338e-05  2.3398865215770166e-05  2.3333673564143170e-05  2.3267864188359300e-05  2.3204548167369562e-05  2.3146420442144067e-05  2.3095411871861590e-05  2.3052453872344675e-05  2.3017436354208351e-05  2.2989371712549842e-05  2.2966695213813557e-05  2.2947586892025178e-05  2.2930216711304056e-05  2.2912869903872535e-05  2.2893953791905772e-05  2.2871920308086630e-05  2.2845064874120052e-05  2.2811378197676883e-05  2.2767547883973257e-05  2.2709954593591750e-05  2.2624777372018999e-05  2.2509626948138174e-05  2.2232233322568528e-05  2.1887402036193825e-05  2.2080739510288077e-05  2.2416088396224924e-05  2.2791151851729889e-05  2.3182241975547339e-05  2.3566896163020841e-05  2.3924696142682297e-05  2.4240236089947720e-05  2.4505682951241187e-05  2.4720305025488788e-05  2.4888380288327680e-05  2.5016787251706332e-05  2.5113088561804752e-05  2.5184350838482501e-05  2.5236595176909747e-05  2.5274661759584717e-05  2.5302294561176241e-05  2.5322315287062733e-05  2.5336813247618474e-05  2.5347316953986087e-05  2.5354935610452663e-05  2.5360469798725148e-05  2.5364495262193239e-05  2.5367424973939245e-05  2.5369554441223687e-05  2.5371094416096494e-05  2.5372194298103049e-05  2.5372958717628825e-05  2.5373459134837181e-05  2.5373741773224695e-05  2.5373832765926177e-05  2.6191784842625020e-05  2.6176293743932008e-05  2.6129870773888372e-05  2.6051286445233369e-05  2.5938809399338651e-05  2.5790714917613260e-05  2.5606034395560190e-05  2.5385467969851989e-05  2.5132270256490485e-05  2.4852742162734414e-05  2.4556063727809911e-05  2.4254234638324356e-05  2.3962375720343298e-05  2.3701493431793948e-05  2.3492011469062016e-05  2.3324128328131615e-05  2.3189967695500484e-05  2.3092083321109556e-05  2.3028272153728048e-05  2.2993804713950448e-05  2.2982217347515583e-05  2.2986940432092646e-05  2.3002220674376895e-05  2.3023433374335959e-05  2.3047188878933840e-05  2.3071379883909201e-05  2.3095126407664570e-05  2.3118578566927590e-05  2.3142619140587130e-05  2.3168532451504395e-05  2.3197680701416168e-05  2.3231204221273639e-05  2.3269762071218135e-05  2.3313342680003353e-05  2.3361177560908741e-05  2.3411773760348681e-05  2.3463051968018920e-05  2.3512554397770053e-05  2.3557678955249808e-05  2.3595902248681092e-05  2.3624967430669885e-05  2.3643027610717986e-05  2.3648747192860286e-05  2.3641369748038386e-05  2.3620761969262931e-05  2.3587440192736702e-05  2.3542580263705089e-05  2.3488004082995290e-05  2.3426127859759641e-05  2.3359850010746422e-05  2.3292355773765940e-05  2.3226829022694793e-05  2.3166095096796236e-05  2.3112263040875555e-05  2.3066464697528215e-05  2.3028774825692407e-05  2.2998337478292293e-05  2.2973645239877616e-05  2.2952864099339241e-05  2.2934099226804414e-05  2.2915544854965971e-05  2.2895509765555516e-05  2.2872346253739640e-05  2.2844252208000808e-05  2.2809095572323901e-05  2.2763442272275981e-05  2.2703378681996285e-05  2.2614821030075707e-05  2.2494487387543419e-05  2.2207038571441725e-05  2.1887647204904269e-05  2.2085410662784163e-05  2.2420704423400076e-05  2.2795704035611562e-05  2.3186544886417739e-05  2.3570779726997398e-05  2.3928043250411809e-05  2.4243001559781131e-05  2.4507883222659151e-05  2.4721997404624410e-05  2.4889642284076512e-05  2.5017700748126231e-05  2.5113729925503583e-05  2.5184786001992281e-05  2.5236878121835070e-05  2.5274834981535966e-05  2.5302390498204498e-05  2.5322358074053575e-05  2.5336820441647738e-05  2.5347301060271890e-05  2.5354905348718444e-05  2.5360431109813139e-05  2.5364452083520077e-05  2.5367379822940762e-05  2.5369508846715713e-05  2.5371049233471481e-05  2.5372149937807396e-05  2.5372915307094058e-05  2.5373416618456767e-05  2.5373699929138952e-05  2.5373791104874706e-05  2.5964552710859097e-05  2.5948779191168669e-05  2.5900930629804585e-05  2.5820175206585490e-05  2.5705459203656954e-05  2.5555998805946020e-05  2.5371958764802351e-05  2.5155209299064691e-05  2.4909928239377457e-05  2.4642789424237587e-05  2.4363064000159465e-05  2.4082715243069633e-05  2.3817121110984637e-05  2.3587033758380670e-05  2.3401069961967865e-05  2.3248169207403824e-05  2.3129365018947470e-05  2.3046213043625367e-05  2.2995522674971940e-05  2.2971734076120302e-05  2.2968007754114056e-05  2.2977971792416944e-05  2.2996373887008144e-05  2.3019188718007968e-05  2.3043592196012415e-05  2.3067940243438935e-05  2.3091686898612401e-05  2.3115196319352185e-05  2.3139476813210158e-05  2.3165884291432884e-05  2.3195823474269270e-05  2.3230460432069620e-05  2.3270466568700368e-05  2.3315828872830394e-05  2.3365762790747562e-05  2.3418744492622121e-05  2.3472649731894028e-05  2.3524963673711251e-05  2.3573018116362803e-05  2.3614217852629926e-05  2.3646231077431052e-05  2.3667133938769945e-05  2.3675511647442116e-05  2.3670525331633085e-05  2.3651955012180571e-05  2.3620226153397940e-05  2.3576421708715565e-05  2.3522274289086452e-05  2.3460124632282009e-05  2.3392824566164814e-05  2.3323559731903612e-05  2.3255577850638335e-05  2.3191839402238986e-05  2.3134652429540063e-05  2.3085385436518307e-05  2.3044345199880425e-05  2.3010856522541249e-05  2.2983508995619860e-05  2.2960476493502485e-05  2.2939801876146160e-05  2.2919575362319595e-05  2.2897984549194380e-05  2.2873253947779271e-05  2.2843453980720368e-05  2.2806288208573819e-05  2.2758181582300673e-05  2.2694777753688811e-05  2.2601972626037550e-05  2.2474400962572469e-05  2.2177968232267668e-05  2.1888711386322653e-05  2.2090846057251260e-05  2.2426047333765164e-05  2.2800961997973277e-05  2.3191483963632596e-05  2.3575188268109097e-05  2.3931776749562916e-05  2.4246010523488136e-05  2.4510200939859828e-05  2.4723710112441895e-05  2.4890858824151617e-05  2.5018530253592035e-05  2.5114269233057930e-05  2.5185114718576493e-05  2.5237058384811220e-05  2.5274913508423574e-05  2.5302401407864436e-05  2.5322325680969348e-05  2.5336761681149369e-05  2.5347227449674407e-05  2.5354824505490478e-05  2.5360347892454500e-05  2.5364369430260546e-05  2.5367299357537324e-05  2.5369431309431184e-05  2.5370974783206589e-05  2.5372078359847620e-05  2.5372846149985630e-05  2.5373349272864841e-05  2.5373633654063220e-05  2.5373725017007425e-05  2.5683095857316138e-05  2.5667406885179690e-05  2.5618956726562683e-05  2.5537425014361595e-05  2.5422544890020004e-05  2.5274554633832370e-05  2.5094759611039712e-05  2.4886053612088729e-05  2.4653262610379307e-05  2.4403448599594090e-05  2.4146052509570936e-05  2.3892985255513999e-05  2.3660101746101680e-05  2.3462561292091758e-05  2.3297781852056117e-05  2.3163451120848541e-05  2.3063994981515764e-05  2.2998660310006240e-05  2.2963134867475474e-05  2.2950918514710585e-05  2.2955144293490980e-05  2.2970014521797605e-05  2.2991050447629415e-05  2.3014975763666305e-05  2.3039598706800930e-05  2.3063760106512013e-05  2.3087248795214344e-05  2.3110636774742684e-05  2.3135051121475151e-05  2.3161913950215795e-05  2.3192668430622905e-05  2.3228503119227183e-05  2.3270099070904125e-05  2.3317439707848820e-05  2.3369722742126173e-05  2.3425391742871239e-05  2.3482274970853436e-05  2.3537796591627959e-05  2.3589216917884765e-05  2.3633862533995825e-05  2.3669319794796787e-05  2.3693580855078495e-05  2.3705144572755806e-05  2.3703082039656383e-05  2.3687077975609997e-05  2.3657456445699441e-05  2.3615194022782931e-05  2.3561916502687992e-05  2.3499866957770022e-05  2.3431824372902613e-05  2.3360947208021592e-05  2.3290523129700951e-05  2.3223633537882309e-05  2.3162785836174798e-05  2.3109602745425272e-05  2.3064657419882410e-05  2.3027501349621982e-05  2.2996867950646561e-05  2.2970974676254506e-05  2.2947819469062078e-05  2.2925387612042657e-05  2.2901730685689088e-05  2.2874922224029878e-05  2.2842876376540079e-05  2.2803099308041474e-05  2.2751846439368980e-05  2.2684227292083844e-05  2.2586338204210440e-05  2.2449703815856251e-05  2.2147507489585440e-05  2.1890937834603412e-05  2.2096551792774762e-05  2.2431496883085728e-05  2.2806245577433692e-05  2.3196364484230062e-05  2.3579455951388582e-05  2.3935297382214245e-05  2.4248753180537367e-05  2.4512221686170399e-05  2.4725117295575252e-05  2.4891779141519490e-05  2.5019084942401788e-05  2.5114561717469017e-05  2.5185226841999103e-05  2.5237051571515795e-05  2.5274832047592635e-05  2.5302276192294884e-05  2.5322177602657352e-05  2.5336604405625564e-05  2.5347069550039887e-05  2.5354671042159060e-05  2.5360201551708718e-05  2.5364231328007619e-05  2.5367169596461037e-05  2.5369309358065336e-05  2.5370859728033064e-05  2.5371969067210281e-05  2.5372741363231699e-05  2.5373247661716207e-05  2.5373533829411955e-05  2.5373625529087562e-05  2.5353376172463445e-05  2.5338229202317099e-05  2.5290492668956250e-05  2.5210387536537529e-05  2.5098431813684059e-05  2.4955803358834162e-05  2.4784725069967990e-05  2.4588852238332496e-05  2.4373640941308422e-05  2.4146512405301389e-05  2.3916845913282356e-05  2.3696614991984565e-05  2.3499380116779998e-05  2.3329679245563932e-05  2.3186858258132618e-05  2.3076117922652848e-05  2.2999555993923290e-05  2.2954320213385905e-05  2.2934688391080570e-05  2.2933638233963244e-05  2.2944909301791336e-05  2.2963697305436178e-05  2.2986494787463540e-05  2.3010830329412596e-05  2.3035137485856906e-05  2.3058713046521061e-05  2.3081649934348698e-05  2.3104703946639032e-05  2.3129104835379146e-05  2.3156330853844511e-05  2.3187857191612369e-05  2.3224890604150561e-05  2.3268119250497492e-05  2.3317522335602018e-05  2.3372281000916687e-05  2.3430808402643025e-05  2.3490887249250856e-05  2.3549881324385895e-05  2.3604978379942644e-05  2.3653424337090766e-05  2.3692720487208570e-05  2.3720771518185225e-05  2.3735986429868400e-05  2.3737342607495078e-05  2.3724425145656529e-05  2.3697450868684466e-05  2.3657281342479936e-05  2.3605422506942449e-05  2.3544000607188243e-05  2.3475695456133364e-05  2.3403605655129814e-05  2.3331023536169071e-05  2.3261119906888394e-05  2.3196580719355185e-05  2.3139278253466505e-05  2.3090066776065391e-05  2.3048758048317873e-05  2.3014274680940767e-05  2.2984922279250992e-05  2.2958685800496754e-05  2.2933459462224122e-05  2.2907155813282991e-05  2.2877682578817620e-05  2.2842774532755690e-05  2.2799716483375284e-05  2.2744567675619654e-05  2.2671877481102482e-05  2.2568110142863927e-05  2.2421218132381869e-05  2.2118178739702266e-05  2.1894328666265062e-05  2.2101912364182058e-05  2.2436310344269462e-05  2.2810746383679726e-05  2.3200361958807993e-05  2.3582789480565346e-05  2.3937884139014617e-05  2.4250606934431637e-05  2.4513430182941458e-05  2.4725806143944667e-05  2.4892079961119707e-05  2.5019115164744517e-05  2.5114415840323236e-05  2.5184975499683731e-05  2.5236744598257164e-05  2.5274502864444962e-05  2.5301946076487555e-05  2.5321859250624273e-05  2.5336304668368848e-05  2.5346791426240231e-05  2.5354415078697611e-05  2.5359966800226697e-05  2.5364015981503677e-05  2.5366971401088285e-05  2.5369125869748327e-05  2.5370688463248839e-05  2.5371807582028223e-05  2.5372587283669714e-05  2.5373098681070133e-05  2.5373387684457219e-05  2.5373479966927658e-05  2.4987832307915181e-05  2.4973617197133648e-05  2.4928158356880163e-05  2.4852091492330312e-05  2.4746542555226041e-05  2.4613401549940667e-05  2.4455641232899233e-05  2.4277600955208466e-05  2.4085121329824752e-05  2.3885539858423484e-05  2.3687942163021308e-05  2.3502581184763309e-05  2.3336097644767941e-05  2.3192083302747378e-05  2.3076738379782847e-05  2.2994033281118293e-05  2.2942730425877021e-05  2.2917989257673355e-05  2.2913015731475705e-05  2.2921303466696728e-05  2.2937866657858299e-05  2.2959150883299719e