<?xml version="1.0"?>
<VTKFile type="UnstructuredGrid"  version="0.1"  >
<UnstructuredGrid>
<Piece  NumberOfPoints="10201" NumberOfCells="20000">
<Points>
<DataArray  type="Float64"  NumberOfComponents="3"  format="ascii">0 0 0  0.25 0 0  0.5 0 0  0.75 0 0  1 0 0  1.25 0 0  1.5 0 0  1.75 0 0  2 0 0  2.25 0 0  2.5 0 0  2.75 0 0  3 0 0  3.25 0 0  3.5 0 0  3.75 0 0  4 0 0  4.25 0 0  4.5 0 0  4.75 0 0  5 0 0  5.25 0 0  5.5 0 0  5.75 0 0  6 0 0  6.25 0 0  6.5 0 0  6.75 0 0  7 0 0  7.25 0 0  7.5 0 0  7.75 0 0  8 0 0  8.25 0 0  8.5 0 0  8.75 0 0  9 0 0  9.25 0 0  9.5 0 0  9.75 0 0  10 0 0  10.25 0 0  10.5 0 0  10.75 0 0  11 0 0  11.25 0 0  11.5 0 0  11.75 0 0  12 0 0  12.25 0 0  12.5 0 0  12.75 0 0  13 0 0  13.25 0 0  13.5 0 0  13.75 0 0  14 0 0  14.25 0 0  14.5 0 0  14.75 0 0  15 0 0  15.25 0 0  15.5 0 0  15.75 0 0  16 0 0  16.25 0 0  16.5 0 0  16.75 0 0  17 0 0  17.25 0 0  17.5 0 0  17.75 0 0  18 0 0  18.25 0 0  18.5 0 0  18.75 0 0  19 0 0  19.25 0 0  19.5 0 0  19.75 0 0  20 0 0  20.25 0 0  20.5 0 0  20.75 0 0  21 0 0  21.25 0 0  21.5 0 0  21.75 0 0  22 0 0  22.25 0 0  22.5 0 0  22.75 0 0  23 0 0  23.25 0 0  23.5 0 0  23.75 0 0  24 0 0  24.25 0 0  24.5 0 0  24.75 0 0  25 0 0  0 0.25 0  0.25 0.25 0  0.5 0.25 0  0.75 0.25 0  1 0.25 0  1.25 0.25 0  1.5 0.25 0  1.75 0.25 0  2 0.25 0  2.25 0.25 0  2.5 0.25 0  2.75 0.25 0  3 0.25 0  3.25 0.25 0  3.5 0.25 0  3.75 0.25 0  4 0.25 0  4.25 0.25 0  4.5 0.25 0  4.75 0.25 0  5 0.25 0  5.25 0.25 0  5.5 0.25 0  5.75 0.25 0  6 0.25 0  6.25 0.25 0  6.5 0.25 0  6.75 0.25 0  7 0.25 0  7.25 0.25 0  7.5 0.25 0  7.75 0.25 0  8 0.25 0  8.25 0.25 0  8.5 0.25 0  8.75 0.25 0  9 0.25 0  9.25 0.25 0  9.5 0.25 0  9.75 0.25 0  10 0.25 0  10.25 0.25 0  10.5 0.25 0  10.75 0.25 0  11 0.25 0  11.25 0.25 0  11.5 0.25 0  11.75 0.25 0  12 0.25 0  12.25 0.25 0  12.5 0.25 0  12.75 0.25 0  13 0.25 0  13.25 0.25 0  13.5 0.25 0  13.75 0.25 0  14 0.25 0  14.25 0.25 0  14.5 0.25 0  14.75 0.25 0  15 0.25 0  15.25 0.25 0  15.5 0.25 0  15.75 0.25 0  16 0.25 0  16.25 0.25 0  16.5 0.25 0  16.75 0.25 0  17 0.25 0  17.25 0.25 0  17.5 0.25 0  17.75 0.25 0  18 0.25 0  18.25 0.25 0  18.5 0.25 0  18.75 0.25 0  19 0.25 0  19.25 0.25 0  19.5 0.25 0  19.75 0.25 0  20 0.25 0  20.25 0.25 0  20.5 0.25 0  20.75 0.25 0  21 0.25 0  21.25 0.25 0  21.5 0.25 0  21.75 0.25 0  22 0.25 0  22.25 0.25 0  22.5 0.25 0  22.75 0.25 0  23 0.25 0  23.25 0.25 0  23.5 0.25 0  23.75 0.25 0  24 0.25 0  24.25 0.25 0  24.5 0.25 0  24.75 0.25 0  25 0.25 0  0 0.5 0  0.25 0.5 0  0.5 0.5 0  0.75 0.5 0  1 0.5 0  1.25 0.5 0  1.5 0.5 0  1.75 0.5 0  2 0.5 0  2.25 0.5 0  2.5 0.5 0  2.75 0.5 0  3 0.5 0  3.25 0.5 0  3.5 0.5 0  3.75 0.5 0  4 0.5 0  4.25 0.5 0  4.5 0.5 0  4.75 0.5 0  5 0.5 0  5.25 0.5 0  5.5 0.5 0  5.75 0.5 0  6 0.5 0  6.25 0.5 0  6.5 0.5 0  6.75 0.5 0  7 0.5 0  7.25 0.5 0  7.5 0.5 0  7.75 0.5 0  8 0.5 0  8.25 0.5 0  8.5 0.5 0  8.75 0.5 0  9 0.5 0  9.25 0.5 0  9.5 0.5 0  9.75 0.5 0  10 0.5 0  10.25 0.5 0  10.5 0.5 0  10.75 0.5 0  11 0.5 0  11.25 0.5 0  11.5 0.5 0  11.75 0.5 0  12 0.5 0  12.25 0.5 0  12.5 0.5 0  12.75 0.5 0  13 0.5 0  13.25 0.5 0  13.5 0.5 0  13.75 0.5 0  14 0.5 0  14.25 0.5 0  14.5 0.5 0  14.75 0.5 0  15 0.5 0  15.25 0.5 0  15.5 0.5 0  15.75 0.5 0  16 0.5 0  16.25 0.5 0  16.5 0.5 0  16.75 0.5 0  17 0.5 0  17.25 0.5 0  17.5 0.5 0  17.75 0.5 0  18 0.5 0  18.25 0.5 0  18.5 0.5 0  18.75 0.5 0  19 0.5 0  19.25 0.5 0  19.5 0.5 0  19.75 0.5 0  20 0.5 0  20.25 0.5 0  20.5 0.5 0  20.75 0.5 0  21 0.5 0  21.25 0.5 0  21.5 0.5 0  21.75 0.5 0  22 0.5 0  22.25 0.5 0  22.5 0.5 0  22.75 0.5 0  23 0.5 0  23.25 0.5 0  23.5 0.5 0  23.75 0.5 0  24 0.5 0  24.25 0.5 0  24.5 0.5 0  24.75 0.5 0  25 0.5 0  0 0.75 0  0.25 0.75 0  0.5 0.75 0  0.75 0.75 0  1 0.75 0  1.25 0.75 0  1.5 0.75 0  1.75 0.75 0  2 0.75 0  2.25 0.75 0  2.5 0.75 0  2.75 0.75 0  3 0.75 0  3.25 0.75 0  3.5 0.75 0  3.75 0.75 0  4 0.75 0  4.25 0.75 0  4.5 0.75 0  4.75 0.75 0  5 0.75 0  5.25 0.75 0  5.5 0.75 0  5.75 0.75 0  6 0.75 0  6.25 0.75 0  6.5 0.75 0  6.75 0.75 0  7 0.75 0  7.25 0.75 0  7.5 0.75 0  7.75 0.75 0  8 0.75 0  8.25 0.75 0  8.5 0.75 0  8.75 0.75 0  9 0.75 0  9.25 0.75 0  9.5 0.75 0  9.75 0.75 0  10 0.75 0  10.25 0.75 0  10.5 0.75 0  10.75 0.75 0  11 0.75 0  11.25 0.75 0  11.5 0.75 0  11.75 0.75 0  12 0.75 0  12.25 0.75 0  12.5 0.75 0  12.75 0.75 0  13 0.75 0  13.25 0.75 0  13.5 0.75 0  13.75 0.75 0  14 0.75 0  14.25 0.75 0  14.5 0.75 0  14.75 0.75 0  15 0.75 0  15.25 0.75 0  15.5 0.75 0  15.75 0.75 0  16 0.75 0  16.25 0.75 0  16.5 0.75 0  16.75 0.75 0  17 0.75 0  17.25 0.75 0  17.5 0.75 0  17.75 0.75 0  18 0.75 0  18.25 0.75 0  18.5 0.75 0  18.75 0.75 0  19 0.75 0  19.25 0.75 0  19.5 0.75 0  19.75 0.75 0  20 0.75 0  20.25 0.75 0  20.5 0.75 0  20.75 0.75 0  21 0.75 0  21.25 0.75 0  21.5 0.75 0  21.75 0.75 0  22 0.75 0  22.25 0.75 0  22.5 0.75 0  22.75 0.75 0  23 0.75 0  23.25 0.75 0  23.5 0.75 0  23.75 0.75 0  24 0.75 0  24.25 0.75 0  24.5 0.75 0  24.75 0.75 0  25 0.75 0  0 1 0  0.25 1 0  0.5 1 0  0.75 1 0  1 1 0  1.25 1 0  1.5 1 0  1.75 1 0  2 1 0  2.25 1 0  2.5 1 0  2.75 1 0  3 1 0  3.25 1 0  3.5 1 0  3.75 1 0  4 1 0  4.25 1 0  4.5 1 0  4.75 1 0  5 1 0  5.25 1 0  5.5 1 0  5.75 1 0  6 1 0  6.25 1 0  6.5 1 0  6.75 1 0  7 1 0  7.25 1 0  7.5 1 0  7.75 1 0  8 1 0  8.25 1 0  8.5 1 0  8.75 1 0  9 1 0  9.25 1 0  9.5 1 0  9.75 1 0  10 1 0  10.25 1 0  10.5 1 0  10.75 1 0  11 1 0  11.25 1 0  11.5 1 0  11.75 1 0  12 1 0  12.25 1 0  12.5 1 0  12.75 1 0  13 1 0  13.25 1 0  13.5 1 0  13.75 1 0  14 1 0  14.25 1 0  14.5 1 0  14.75 1 0  15 1 0  15.25 1 0  15.5 1 0  15.75 1 0  16 1 0  16.25 1 0  16.5 1 0  16.75 1 0  17 1 0  17.25 1 0  17.5 1 0  17.75 1 0  18 1 0  18.25 1 0  18.5 1 0  18.75 1 0  19 1 0  19.25 1 0  19.5 1 0  19.75 1 0  20 1 0  20.25 1 0  20.5 1 0  20.75 1 0  21 1 0  21.25 1 0  21.5 1 0  21.75 1 0  22 1 0  22.25 1 0  22.5 1 0  22.75 1 0  23 1 0  23.25 1 0  23.5 1 0  23.75 1 0  24 1 0  24.25 1 0  24.5 1 0  24.75 1 0  25 1 0  0 1.25 0  0.25 1.25 0  0.5 1.25 0  0.75 1.25 0  1 1.25 0  1.25 1.25 0  1.5 1.25 0  1.75 1.25 0  2 1.25 0  2.25 1.25 0  2.5 1.25 0  2.75 1.25 0  3 1.25 0  3.25 1.25 0  3.5 1.25 0  3.75 1.25 0  4 1.25 0  4.25 1.25 0  4.5 1.25 0  4.75 1.25 0  5 1.25 0  5.25 1.25 0  5.5 1.25 0  5.75 1.25 0  6 1.25 0  6.25 1.25 0  6.5 1.25 0  6.75 1.25 0  7 1.25 0  7.25 1.25 0  7.5 1.25 0  7.75 1.25 0  8 1.25 0  8.25 1.25 0  8.5 1.25 0  8.75 1.25 0  9 1.25 0  9.25 1.25 0  9.5 1.25 0  9.75 1.25 0  10 1.25 0  10.25 1.25 0  10.5 1.25 0  10.75 1.25 0  11 1.25 0  11.25 1.25 0  11.5 1.25 0  11.75 1.25 0  12 1.25 0  12.25 1.25 0  12.5 1.25 0  12.75 1.25 0  13 1.25 0  13.25 1.25 0  13.5 1.25 0  13.75 1.25 0  14 1.25 0  14.25 1.25 0  14.5 1.25 0  14.75 1.25 0  15 1.25 0  15.25 1.25 0  15.5 1.25 0  15.75 1.25 0  16 1.25 0  16.25 1.25 0  16.5 1.25 0  16.75 1.25 0  17 1.25 0  17.25 1.25 0  17.5 1.25 0  17.75 1.25 0  18 1.25 0  18.25 1.25 0  18.5 1.25 0  18.75 1.25 0  19 1.25 0  19.25 1.25 0  19.5 1.25 0  19.75 1.25 0  20 1.25 0  20.25 1.25 0  20.5 1.25 0  20.75 1.25 0  21 1.25 0  21.25 1.25 0  21.5 1.25 0  21.75 1.25 0  22 1.25 0  22.25 1.25 0  22.5 1.25 0  22.75 1.25 0  23 1.25 0  23.25 1.25 0  23.5 1.25 0  23.75 1.25 0  24 1.25 0  24.25 1.25 0  24.5 1.25 0  24.75 1.25 0  25 1.25 0  0 1.5 0  0.25 1.5 0  0.5 1.5 0  0.75 1.5 0  1 1.5 0  1.25 1.5 0  1.5 1.5 0  1.75 1.5 0  2 1.5 0  2.25 1.5 0  2.5 1.5 0  2.75 1.5 0  3 1.5 0  3.25 1.5 0  3.5 1.5 0  3.75 1.5 0  4 1.5 0  4.25 1.5 0  4.5 1.5 0  4.75 1.5 0  5 1.5 0  5.25 1.5 0  5.5 1.5 0  5.75 1.5 0  6 1.5 0  6.25 1.5 0  6.5 1.5 0  6.75 1.5 0  7 1.5 0  7.25 1.5 0  7.5 1.5 0  7.75 1.5 0  8 1.5 0  8.25 1.5 0  8.5 1.5 0  8.75 1.5 0  9 1.5 0  9.25 1.5 0  9.5 1.5 0  9.75 1.5 0  10 1.5 0  10.25 1.5 0  10.5 1.5 0  10.75 1.5 0  11 1.5 0  11.25 1.5 0  11.5 1.5 0  11.75 1.5 0  12 1.5 0  12.25 1.5 0  12.5 1.5 0  12.75 1.5 0  13 1.5 0  13.25 1.5 0  13.5 1.5 0  13.75 1.5 0  14 1.5 0  14.25 1.5 0  14.5 1.5 0  14.75 1.5 0  15 1.5 0  15.25 1.5 0  15.5 1.5 0  15.75 1.5 0  16 1.5 0  16.25 1.5 0  16.5 1.5 0  16.75 1.5 0  17 1.5 0  17.25 1.5 0  17.5 1.5 0  17.75 1.5 0  18 1.5 0  18.25 1.5 0  18.5 1.5 0  18.75 1.5 0  19 1.5 0  19.25 1.5 0  19.5 1.5 0  19.75 1.5 0  20 1.5 0  20.25 1.5 0  20.5 1.5 0  20.75 1.5 0  21 1.5 0  21.25 1.5 0  21.5 1.5 0  21.75 1.5 0  22 1.5 0  22.25 1.5 0  22.5 1.5 0  22.75 1.5 0  23 1.5 0  23.25 1.5 0  23.5 1.5 0  23.75 1.5 0  24 1.5 0  24.25 1.5 0  24.5 1.5 0  24.75 1.5 0  25 1.5 0  0 1.75 0  0.25 1.75 0  0.5 1.75 0  0.75 1.75 0  1 1.75 0  1.25 1.75 0  1.5 1.75 0  1.75 1.75 0  2 1.75 0  2.25 1.75 0  2.5 1.75 0  2.75 1.75 0  3 1.75 0  3.25 1.75 0  3.5 1.75 0  3.75 1.75 0  4 1.75 0  4.25 1.75 0  4.5 1.75 0  4.75 1.75 0  5 1.75 0  5.25 1.75 0  5.5 1.75 0  5.75 1.75 0  6 1.75 0  6.25 1.75 0  6.5 1.75 0  6.75 1.75 0  7 1.75 0  7.25 1.75 0  7.5 1.75 0  7.75 1.75 0  8 1.75 0  8.25 1.75 0  8.5 1.75 0  8.75 1.75 0  9 1.75 0  9.25 1.75 0  9.5 1.75 0  9.75 1.75 0  10 1.75 0  10.25 1.75 0  10.5 1.75 0  10.75 1.75 0  11 1.75 0  11.25 1.75 0  11.5 1.75 0  11.75 1.75 0  12 1.75 0  12.25 1.75 0  12.5 1.75 0  12.75 1.75 0  13 1.75 0  13.25 1.75 0  13.5 1.75 0  13.75 1.75 0  14 1.75 0  14.25 1.75 0  14.5 1.75 0  14.75 1.75 0  15 1.75 0  15.25 1.75 0  15.5 1.75 0  15.75 1.75 0  16 1.75 0  16.25 1.75 0  16.5 1.75 0  16.75 1.75 0  17 1.75 0  17.25 1.75 0  17.5 1.75 0  17.75 1.75 0  18 1.75 0  18.25 1.75 0  18.5 1.75 0  18.75 1.75 0  19 1.75 0  19.25 1.75 0  19.5 1.75 0  19.75 1.75 0  20 1.75 0  20.25 1.75 0  20.5 1.75 0  20.75 1.75 0  21 1.75 0  21.25 1.75 0  21.5 1.75 0  21.75 1.75 0  22 1.75 0  22.25 1.75 0  22.5 1.75 0  22.75 1.75 0  23 1.75 0  23.25 1.75 0  23.5 1.75 0  23.75 1.75 0  24 1.75 0  24.25 1.75 0  24.5 1.75 0  24.75 1.75 0  25 1.75 0  0 2 0  0.25 2 0  0.5 2 0  0.75 2 0  1 2 0  1.25 2 0  1.5 2 0  1.75 2 0  2 2 0  2.25 2 0  2.5 2 0  2.75 2 0  3 2 0  3.25 2 0  3.5 2 0  3.75 2 0  4 2 0  4.25 2 0  4.5 2 0  4.75 2 0  5 2 0  5.25 2 0  5.5 2 0  5.75 2 0  6 2 0  6.25 2 0  6.5 2 0  6.75 2 0  7 2 0  7.25 2 0  7.5 2 0  7.75 2 0  8 2 0  8.25 2 0  8.5 2 0  8.75 2 0  9 2 0  9.25 2 0  9.5 2 0  9.75 2 0  10 2 0  10.25 2 0  10.5 2 0  10.75 2 0  11 2 0  11.25 2 0 
[...]
<PointData  Scalars="f_26"> 
<DataArray  type="Float64"  Name="f_26"  format="ascii">2.2075788456279871e-05  2.2085859870403477e-05  2.2110253695597055e-05  2.2149541049076283e-05  2.2203481937010763e-05  2.2271381449050681e-05  2.2352165908635004e-05  2.2444413934618126e-05  2.2546387874965362e-05  2.2656079721603567e-05  2.2771280834725838e-05  2.2889678377833238e-05  2.3008971155432643e-05  2.3126989797880852e-05  2.3241804316751826e-05  2.3351805083231859e-05  2.3455749251459820e-05  2.3552771462117083e-05  2.3642363483265237e-05  2.3724331114482965e-05  2.3798737910589788e-05  2.3865844508597499e-05  2.3926050362200539e-05  2.3979842302865340e-05  2.4027752142983826e-05  2.4070323827545760e-05  2.4108089508807471e-05  2.4141553300902089e-05  2.4171181241564311e-05  2.4197396011522496e-05  2.4220575125689184e-05  2.4241051532556174e-05  2.4259115787505471e-05  2.4275019173784248e-05  2.4288977319428316e-05  2.4301173997060554e-05  2.4311764899113467e-05  2.4320881258776400e-05  2.4328633242490747e-05  2.4335113078324973e-05  2.4340397910444019e-05  2.4344552386626545e-05  2.4347630996020333e-05  2.4349680180003179e-05  2.4350740241522707e-05  2.4350847078598792e-05  2.4350033766459869e-05  2.4348332010508863e-05  2.4345773489284783e-05  2.4342391103005740e-05  2.4338220139274827e-05  2.4333299363173870e-05  2.4327672034292455e-05  2.4321386848249099e-05  2.4314498794959520e-05  2.4307069920314130e-05  2.4299169972110218e-05  2.4290876905189673e-05  2.4282277215019463e-05  2.4273466063815622e-05  2.4264547159302963e-05  2.4255632344019168e-05  2.4246840853524268e-05  2.4238298205823374e-05  2.4230134692558068e-05  2.4222483455692393e-05  2.4215478151800273e-05  2.4209250229447265e-05  2.4203925872716547e-05  2.4199622694103234e-05  2.4196446290509926e-05  2.4194486804007548e-05  2.4193815651061880e-05  2.4194482596701217e-05  2.4196513350651762e-05  2.4199907848740069e-05  2.4204639354174340e-05  2.4210654470695307e-05  2.4217874105879691e-05  2.4226195362577266e-05  2.4235494275234844e-05  2.4245629251836451e-05  2.4256445037113264e-05  2.4267776983083626e-05  2.4279455401548932e-05  2.4291309780369761e-05  2.4303172669468043e-05  2.4314883080014646e-05  2.4326289286433361e-05  2.4337250970479348e-05  2.4347640694760232e-05  2.4357344735443873e-05  2.4366263337297108e-05  2.4374310476111828e-05  2.4381413221017492e-05  2.4387510774788966e-05  2.4392553208412534e-05  2.4396499697650606e-05  2.4399315299710645e-05  2.4400962121973834e-05  2.4401366339614486e-05  2.2083742162938834e-05  2.2092146711459121e-05  2.2116060310542984e-05  2.2155107825270692e-05  2.2208833062061999e-05  2.2276486601084891e-05  2.2356981121835767e-05  2.2448894692174204e-05  2.2550495008808956e-05  2.2659782642231291e-05  2.2774559271065558e-05  2.2892523178806467e-05  2.3011384259823417e-05  2.3128983351745080e-05  2.3243399076776803e-05  2.3353028391476631e-05  2.3456632893924989e-05  2.3553349662119035e-05  2.3642671186105563e-05  2.3724402631498531e-05  2.3798605926126827e-05  2.3865539414955292e-05  2.3925599869561314e-05  2.3979271266439468e-05  2.4027082552242564e-05  2.4069574908756695e-05  2.4107277899997795e-05  2.4140693266649677e-05  2.4170284902931895e-05  2.4196473573545454e-05  2.4219635090832073e-05  2.4240100893357422e-05  2.4258160195255482e-05  2.4274063082645442e-05  2.4288024107077254e-05  2.4300226063902005e-05  2.4310823748570389e-05  2.4319947561263444e-05  2.4327706885571883e-05  2.4334193205348463e-05  2.4339482949725054e-05  2.4343640073069373e-05  2.4346718386978513e-05  2.4348763667191002e-05  2.4349815560921131e-05  2.4349909320540174e-05  2.4349077388409825e-05  2.4347350855461952e-05  2.4344760813112552e-05  2.4341339614489335e-05  2.4337122056857095e-05  2.4332146492605756e-05  2.4326455871247507e-05  2.4320098709558733e-05  2.4313129981307560e-05  2.4305611911965165e-05  2.4297614657503607e-05  2.4289216840021823e-05  2.4280505906825406e-05  2.4271578274173919e-05  2.4262539212816361e-05  2.4253502430418731e-05  2.4244589306902986e-05  2.4235927743441804e-05  2.4227650595179408e-05  2.4219893672241599e-05  2.4212793313448951e-05  2.4206483562020312e-05  2.4201093001461036e-05  2.4196741341061256e-05  2.4193535871557489e-05  2.4191567939515329e-05  2.4190909610496537e-05  2.4191610702716651e-05  2.4193696371785730e-05  2.4197165411331610e-05  2.4201989403333447e-05  2.4208112807089498e-05  2.4215454019984095e-05  2.4223907381312409e-05  2.4233346028207949e-05  2.4243625456427649e-05  2.4254587594143500e-05  2.4266065168426785e-05  2.4277886134312410e-05  2.4289877945459602e-05  2.4301871471538545e-05  2.4313704406821686e-05  2.4325224062138633e-05  2.4336289483064021e-05  2.4346772885964938e-05  2.4356560446215903e-05  2.4365552506514598e-05  2.4373663295940283e-05  2.4380820261142843e-05  2.4386963109311253e-05  2.4392042650184094e-05  2.4396019522454642e-05  2.4398863045630590e-05  2.4400551640337309e-05  2.4401083584959984e-05  2.2101930827810339e-05  2.2109866849536120e-05  2.2133323629200173e-05  2.2171912511882742e-05  2.2225100388397232e-05  2.2292094080894313e-05  2.2371789933680726e-05  2.2462766359981337e-05  2.2563302173241216e-05  2.2671417216352307e-05  2.2784939208439564e-05  2.2901597652265473e-05  2.3019136485632289e-05  2.3135430531596832e-05  2.3248589499842405e-05  2.3357036267125798e-05  2.3459551802047276e-05  2.3555285576601209e-05  2.3643735893551710e-05  2.3724708117165431e-05  2.3798260020733628e-05  2.3864642755138627e-05  2.3924244054527191e-05  2.3977537998720678e-05  2.4025043518593037e-05  2.4067292168336157e-05  2.4104804581943762e-05  2.4138074423052022e-05  2.4167558406469225e-05  2.4193670986447601e-05  2.4216782461437552e-05  2.4237219458335905e-05  2.4255266980560581e-05  2.4271171405817093e-05  2.4285143988995130e-05  2.4297364560702442e-05  2.4307985215151326e-05  2.4317133857362031e-05  2.4324917534359115e-05  2.4331425513238107e-05  2.4336732094911286e-05  2.4340899169367152e-05  2.4343978528949832e-05  2.4346013962352254e-05  2.4347043155051661e-05  2.4347099422722943e-05  2.4346213303372768e-05  2.4344414031961184e-05  2.4341730918382913e-05  2.4338194646026625e-05  2.4333838503800572e-05  2.4328699559539686e-05  2.4322819777095306e-05  2.4316247073152436e-05  2.4309036302942000e-05  2.4301250156595647e-05  2.4292959940103014e-05  2.4284246206982698e-05  2.4275199199340932e-05  2.4265919050616960e-05  2.4256515697825337e-05  2.4247108449458296e-05  2.4237825157418097e-05  2.4228800948367884e-05  2.4220176482481635e-05  2.4212095726150166e-05  2.4204703249661186e-05  2.4198141090476729e-05  2.4192545256008640e-05  2.4188041974522676e-05  2.4184743836088184e-05  2.4182745993943945e-05  2.4182122616684198e-05  2.4182923789899756e-05  2.4185173059638563e-05  2.4188865787754125e-05  2.4193968450971076e-05  2.4200418963263678e-05  2.4208128038748643e-05  2.4216981545160214e-05  2.4226843732519179e-05  2.4237561164408803e-05  2.4248967136152097e-05  2.4260886339362319e-05  2.4273139527820978e-05  2.4285547954988165e-05  2.4297937385955893e-05  2.4310141531849956e-05  2.4322004807110417e-05  2.4333384364113856e-05  2.4344151410211604e-05  2.4354191855564416e-05  2.4363406373746902e-05  2.4371709980208651e-05  2.4379031247486127e-05  2.4385311284934303e-05  2.4390502626939352e-05  2.4394568231925953e-05  2.4397480989762258e-05  2.4399224661857763e-05  2.4399797908821875e-05  2.2131287647984423e-05  2.2139000276985031e-05  2.2162007815719269e-05  2.2199962331774003e-05  2.2252309255163520e-05  2.2318232269439358e-05  2.2396618886010538e-05  2.2486053560963124e-05  2.2584834167828229e-05  2.2691011539534848e-05  2.2802455416326632e-05  2.2916946251926162e-05  2.3032284137084381e-05  2.3146400515004617e-05  2.3257457421027292e-05  2.3363921855685337e-05  2.3464608217668518e-05  2.3558687808389020e-05  2.3645669662205504e-05  2.3725360297007250e-05  2.3797811134609593e-05  2.3863261677933267e-05  2.3922084756275226e-05  2.3974737981968854e-05  2.4021723538995749e-05  2.4063556839778375e-05  2.4100743524290008e-05  2.4133763685207070e-05  2.4163061972077618e-05  2.4189042234576474e-05  2.4212065506170788e-05  2.4232450329180716e-05  2.4250474631624093e-05  2.4266378558243107e-05  2.4280367820575241e-05  2.4292617261006706e-05  2.4303274425668876e-05  2.4312463015305926e-05  2.4320286136930126e-05  2.4326829316938260e-05  2.4332163262415597e-05  2.4336346374805342e-05  2.4339427031402530e-05  2.4341445657020201e-05  2.4342436611930595e-05  2.4342429923670129e-05  2.4341452890087123e-05  2.4339531579468424e-05  2.4336692250915484e-05  2.4332962714453526e-05  2.4328373645673451e-05  2.4322959864001628e-05  2.4316761576925027e-05  2.4309825584642341e-05  2.4302206430699458e-05  2.4293967474341731e-05  2.4285181849880229e-05  2.4275933267837384e-05  2.4266316602763708e-05  2.4256438204400273e-05  2.4246415863507711e-05  2.4236378362518796e-05  2.4226464545511367e-05  2.4216821852961035e-05  2.4207604285046464e-05  2.4198969783078814e-05  2.4191077051291460e-05  2.4184081879277922e-05  2.4178133066453250e-05  2.4173368090895980e-05  2.4169908702065470e-05  2.4167856646142369e-05  2.4167289750157608e-05  2.4168258593260964e-05  2.4170783978094737e-05  2.4174855381478294e-05  2.4180430512582342e-05  2.4187436041669372e-05  2.4195769488458339e-05  2.4205302182916669e-05  2.4215883140220162e-05  2.4227343632945053e-05  2.4239502203190678e-05  2.4252169839049289e-05  2.4265155044725050e-05  2.4278268559963788e-05  2.4291327528195956e-05  2.4304158968176679e-05  2.4316602464487324e-05  2.4328512051859466e-05  2.4339757321757787e-05  2.4350223823449990e-05  2.4359812864158855e-05  2.4368440833979443e-05  2.4376038193173530e-05  2.4382548266742907e-05  2.4387926001738744e-05  2.4392136867984329e-05  2.4395156126196138e-05  2.4396968672405887e-05  2.4397569148385919e-05  2.2172179632554393e-05  2.2179694498726566e-05  2.2202180577714513e-05  2.2239303051747246e-05  2.2290495926123306e-05  2.2354930303039976e-05  2.2431492142083477e-05  2.2518778821176526e-05  2.2615116191441247e-05  2.2718598368664467e-05  2.2827153099580214e-05  2.2938630841622402e-05  2.3050908662785766e-05  2.3161995592712527e-05  2.3270125462645429e-05  2.3373826003135680e-05  2.3471957876318265e-05  2.3563722895455930e-05  2.3648645470436070e-05  2.3726534362023403e-05  2.3797432877982235e-05  2.3861565035576064e-05  2.3919283584652440e-05  2.3971023788053888e-05  2.4017264983022358e-05  2.4058500470234596e-05  2.4095215277620602e-05  2.4127870781944612e-05  2.4156894942028122e-05  2.4182676892497917e-05  2.4205564770420121e-05  2.4225865828470002e-05  2.4243848081410831e-05  2.4259742911532564e-05  2.4273748211288116e-05  2.4286031764452455e-05  2.4296734662418065e-05  2.4305974623689742e-05  2.4313849136855176e-05  2.4320438384652063e-05  2.4325807932958439e-05  2.4330011186578247e-05  2.4333091625840669e-05  2.4335084845927864e-05  2.4336020425647585e-05  2.4335923654854190e-05  2.4334817150389215e-05  2.4332722389547185e-05  2.4329661187803930e-05  2.4325657143887654e-05  2.4320737070159665e-05  2.4314932419586465e-05  2.4308280712203446e-05  2.4300826953814410e-05  2.4292625027770229e-05  2.4283739027241270e-05  2.4274244480921708e-05  2.4264229410392742e-05  2.4253795143608210e-05  2.4243056797691382e-05  2.4232143337262894e-05  2.4221197113791480e-05  2.4210372798786545e-05  2.4199835640441453e-05  2.4189759000282341e-05  2.4180321163192224e-05  2.4171701459419158e-05  2.4164075788191055e-05  2.4157611685605402e-05  2.4152463129959745e-05  2.4148765320609800e-05  2.4146629696781431e-05  2.4146139476068721e-05  2.4147345985265856e-05  2.4150266026962880e-05  2.4154880474298227e-05  2.4161134216061958e-05  2.4168937490025592e-05  2.4178168551069462e-05  2.4188677530932823e-05  2.4200291267166045e-05  2.4212818818226752e-05  2.4226057345699371e-05  2.4239798036417117e-05  2.4253831756482767e-05  2.4267954172191589e-05  2.4281970133451098e-05  2.4295697185785374e-05  2.4308968149492079e-05  2.4321632771973755e-05  2.4333558516405202e-05  2.4344630593594990e-05  2.4354751373223034e-05  2.4363839326621467e-05  2.4371827658502593e-05  2.4378662783098020e-05  2.4384302794398098e-05  2.4388716069917863e-05  2.4391880116496237e-05  2.4393780656032166e-05  2.4394410631322928e-05  2.2224760271688886e-05  2.2232045106333043e-05  2.2253888268675023e-05  2.2289952351140195e-05  2.2339661104574070e-05  2.2402178657841505e-05  2.2476395514396085e-05  2.2560929080823205e-05  2.2654142651091762e-05  2.2754186263562045e-05  2.2859061391057239e-05  2.2966706482480068e-05  2.3075094634201837e-05  2.3182331223193559e-05  2.3286739056766466e-05  2.3386921152255242e-05  2.3481795697124229e-05  2.3570602724252526e-05  2.3652886288911277e-05  2.3728458627445212e-05  2.3797353700561952e-05  2.3859776974146168e-05  2.3916056828441461e-05  2.3966601189647785e-05  2.4011861283401045e-05  2.4052303062482281e-05  2.4088385939044107e-05  2.4120547921415185e-05  2.4149196030437663e-05  2.4174700852111700e-05  2.4197394186132194e-05  2.4217568909293531e-05  2.4235480346136345e-05  2.4251348601965374e-05  2.4265361453678114e-05  2.4277677508140080e-05  2.4288429427227449e-05  2.4297727086464107e-05  2.4305660584449048e-05  2.4312303056905184e-05  2.4317713275546870e-05  2.4321938030757415e-05  2.4325014310335985e-05  2.4326971295797122e-05  2.4327832203910343e-05  2.4327616005019427e-05  2.4326339051575617e-05  2.4324016650440944e-05  2.4320664610888392e-05  2.4316300796737130e-05  2.4310946705511476e-05  2.4304629089643276e-05  2.4297381624290618e-05  2.4289246613137969e-05  2.4280276707565570e-05  2.4270536596112755e-05  2.4260104600908289e-05  2.4249074096917381e-05  2.4237554650250064e-05  2.4225672755725578e-05  2.4213572044132641e-05  2.4201412829037225e-05  2.4189370874177325e-05  2.4177635287326765e-05  2.4166405485681299e-05  2.4155887230410497e-05  2.4146287791339339e-05  2.4137810372359822e-05  2.4130647998305070e-05  2.4124977127963450e-05  2.4120951308809301e-05  2.4118695220579190e-05  2.4118299461985010e-05  2.4119816414452983e-05  2.4123257468006461e-05  2.4128591819190937e-05  2.4135746954081780e-05  2.4144610818490620e-05  2.4155035562316162e-05  2.4166842636681519e-05  2.4179828932107102e-05  2.4193773582892687e-05  2.4208445033410805e-05  2.4223607968266166e-05  2.4239029747867106e-05  2.4254486057473684e-05  2.4269765561988658e-05  2.4284673450185676e-05  2.4299033840733410e-05  2.4312691100134335e-05  2.4325510184118783e-05  2.4337376156653691e-05  2.4348193064778558e-05  2.4357882355273574e-05  2.4366381014212866e-05  2.4373639596435444e-05  2.4379620291245127e-05  2.4384295141846247e-05  2.4387644490402163e-05  2.4389655641463636e-05  2.4390321623403408e-05  2.2289006839651569e-05  2.2296011874503633e-05  2.2317066825090431e-05  2.2351827663815512e-05  2.2399710253858623e-05  2.2459876973290089e-05  2.2531229239010514e-05  2.2612412353051247e-05  2.2701837304489494e-05  2.2797723009667607e-05  2.2898159849273192e-05  2.3001190765454017e-05  2.3104901669854586e-05  2.3207510340268793e-05  2.3307442984550123e-05  2.3403390020508565e-05  2.3494336552098028e-05  2.3579567369158565e-05  2.3658649973714681e-05  2.3731401450079261e-05  2.3797845779068722e-05  2.3858167707479297e-05  2.3912668002620576e-05  2.3961723343119570e-05  2.4005752599070159e-05  2.4045190052600594e-05  2.4080465276265791e-05  2.4111988896982097e-05  2.4140143255017362e-05  2.4165276936437839e-05  2.4187702238176758e-05  2.4207694760196328e-05  2.4225494470479359e-05  2.4241307732947022e-05  2.4255309914485111e-05  2.4267648291213619e-05  2.4278445056462136e-05  2.4287800296287481e-05  2.4295794846218863e-05  2.4302492978625084e-05  2.4307944896614124e-05  2.4312189030065228e-05  2.4315254144046093e-05  2.4317161280763780e-05  2.4317925564199191e-05  2.4317557902213191e-05  2.4316066624456192e-05  2.4313459095920123e-05  2.4309743345322305e-05  2.4304929744434392e-05  2.4299032768574586e-05  2.4292072859300265e-05  2.4284078397398914e-05  2.4275087777210912e-05  2.4265151552012610e-05  2.4254334594959583e-05  2.4242718191879553e-05  2.4230401952747677e-05  2.4217505400595471e-05  2.4204169073368465e-05  2.4190554959948916e-05  2.4176846090474277e-05  2.4163245117034758e-05  2.4149971756445245e-05  2.4137259022734847e-05  2.4125348251460628e-05  2.4114483006396970e-05  2.4104902054563659e-05  2.4096831689106159e-05  2.4090477761589034e-05  2.4086017846496219e-05  2.4083593993251087e-05  2.4083306519272274e-05  2.4085209258782080e-05  2.4089306606898683e-05  2.4095552591079075e-05  2.4103852069829132e-05  2.4114064012545596e-05  2.4126006667657219e-05  2.4139464293349830e-05  2.4154195019978319e-05  2.4169939347037497e-05  2.4186428756988709e-05  2.4203393954211858e-05  2.4220572304723924e-05  2.4237714150811043e-05  2.4254587790876578e-05  2.4270983034290535e-05  2.4286713350992863e-05  2.4301616726430287e-05  2.4315555398577264e-05  2.4328414693899616e-05  2.4340101195165970e-05  2.4350540470279468e-05  2.4359674573079970e-05  2.4367459499398823e-05  2.4373862748177761e-05  2.4378861099506183e-05  2.4382438678122559e-05  2.4384585323446350e-05  2.4385295253371093e-05  2.2364688443366593e-05  2.2371358998353783e-05  2.2391472140108788e-05  2.2424678605007488e-05  2.2470390977854306e-05  2.2527776389159278e-05  2.2595754896021073e-05  2.2673008987350938e-05  2.2758008656582915e-05  2.2849054854841641e-05  2.2944341160029005e-05  2.3042029573461864e-05  2.3140332885904723e-05  2.3237594199197053e-05  2.3332354426427778e-05  2.3423400761743418e-05  2.3509792523944977e-05  2.3590864476625236e-05  2.3666210820037365e-05  2.3735654980535021e-05  2.3799210964316725e-05  2.3857041613742046e-05  2.3909418006457008e-05  2.3956682882515606e-05  2.3999219690140085e-05  2.4037427791488764e-05  2.4071703631310939e-05  2.4102427227345329e-05  2.4129953133216882e-05  2.4154604981978911e-05  2.4176672777229059e-05  2.4196412209108650e-05  2.4214045400295748e-05  2.4229762611570249e-05  2.4243724546947377e-05  2.4256064990727721e-05  2.4266893583078511e-05  2.4276298598972513e-05  2.4284349640275405e-05  2.4291100185331455e-05  2.4296589967043954e-05  2.4300847171181118e-05  2.4303890462955509e-05  2.4305730862871131e-05  2.4306373503078899e-05  2.4305819303397805e-05  2.4304066611865641e-05  2.4301112858084169e-05  2.4296956268423539e-05  2.4291597689867947e-05  2.4285042563270866e-05  2.4277303076276025e-05  2.4268400510355988e-05  2.4258367774650741e-05  2.4247252091220847e-05  2.4235117762240142e-05  2.4222048910732211e-05  2.4208152045082436e-05  2.4193558257467675e-05  2.4178424832593283e-05  2.4162936021749492e-05  2.4147302734538560e-05  2.4131760922321985e-05  2.4116568477241261e-05  2.4102000549273277e-05  2.4088343288019034e-05  2.4075886138529216e-05  2.4064912950630671e-05  2.4055692285830010e-05  2.4048467411260518e-05  2.4043446543880970e-05  2.4040793940582240e-05  2.4040622415149762e-05  2.4042987799557446e-05  2.4047885757540430e-05  2.4055251209719953e-05  2.4064960452641930e-05  2.4076835863469674e-05  2.4090652895079300e-05  2.4106148901584740e-05  2.4123033209540094e-05  2.4140997779180665e-05  2.4159727790682355e-05  2.4178911542100629e-05  2.4198249149697616e-05  2.4217459682331220e-05  2.4236286520145676e-05  2.4254500884295146e-05  2.4271903622082798e-05  2.4288325439116199e-05  2.4303625841376713e-05  2.4317691085703276e-05  2.4330431441712007e-05  2.4341778048819548e-05  2.4351679616819121e-05  2.4360099174708807e-05  2.4367011025882781e-05  2.4372398022148551e-05  2.4376249227069614e-05  2.4378558005369175e-05  2.4379320560549020e-05  2.2451317570481846e-05  2.2457599764962479e-05  2.2476619224217644e-05  2.2508025087730333e-05  2.2551232937811033e-05  2.2605422733650112e-05  2.2669542644671862e-05  2.2742323254587198e-05  2.2822305785981893e-05  2.2907886190152821e-05  2.2997374155734797e-05  2.3089062909798897e-05  2.3181303072051949e-05  2.3272572557252478e-05  2.3361534943616007e-05  2.3447080676310573e-05  2.3528348375621268e-05  2.3604726589141965e-05  2.3675838859381724e-05  2.3741516541934522e-05  2.3801764314549210e-05  2.3856722947579351e