<?xml version="1.0"?>
<VTKFile type="UnstructuredGrid"  version="0.1"  >
<UnstructuredGrid>
<Piece  NumberOfPoints="10201" NumberOfCells="20000">
<Points>
<DataArray  type="Float64"  NumberOfComponents="3"  format="ascii">0 0 0  0.25 0 0  0.5 0 0  0.75 0 0  1 0 0  1.25 0 0  1.5 0 0  1.75 0 0  2 0 0  2.25 0 0  2.5 0 0  2.75 0 0  3 0 0  3.25 0 0  3.5 0 0  3.75 0 0  4 0 0  4.25 0 0  4.5 0 0  4.75 0 0  5 0 0  5.25 0 0  5.5 0 0  5.75 0 0  6 0 0  6.25 0 0  6.5 0 0  6.75 0 0  7 0 0  7.25 0 0  7.5 0 0  7.75 0 0  8 0 0  8.25 0 0  8.5 0 0  8.75 0 0  9 0 0  9.25 0 0  9.5 0 0  9.75 0 0  10 0 0  10.25 0 0  10.5 0 0  10.75 0 0  11 0 0  11.25 0 0  11.5 0 0  11.75 0 0  12 0 0  12.25 0 0  12.5 0 0  12.75 0 0  13 0 0  13.25 0 0  13.5 0 0  13.75 0 0  14 0 0  14.25 0 0  14.5 0 0  14.75 0 0  15 0 0  15.25 0 0  15.5 0 0  15.75 0 0  16 0 0  16.25 0 0  16.5 0 0  16.75 0 0  17 0 0  17.25 0 0  17.5 0 0  17.75 0 0  18 0 0  18.25 0 0  18.5 0 0  18.75 0 0  19 0 0  19.25 0 0  19.5 0 0  19.75 0 0  20 0 0  20.25 0 0  20.5 0 0  20.75 0 0  21 0 0  21.25 0 0  21.5 0 0  21.75 0 0  22 0 0  22.25 0 0  22.5 0 0  22.75 0 0  23 0 0  23.25 0 0  23.5 0 0  23.75 0 0  24 0 0  24.25 0 0  24.5 0 0  24.75 0 0  25 0 0  0 0.25 0  0.25 0.25 0  0.5 0.25 0  0.75 0.25 0  1 0.25 0  1.25 0.25 0  1.5 0.25 0  1.75 0.25 0  2 0.25 0  2.25 0.25 0  2.5 0.25 0  2.75 0.25 0  3 0.25 0  3.25 0.25 0  3.5 0.25 0  3.75 0.25 0  4 0.25 0  4.25 0.25 0  4.5 0.25 0  4.75 0.25 0  5 0.25 0  5.25 0.25 0  5.5 0.25 0  5.75 0.25 0  6 0.25 0  6.25 0.25 0  6.5 0.25 0  6.75 0.25 0  7 0.25 0  7.25 0.25 0  7.5 0.25 0  7.75 0.25 0  8 0.25 0  8.25 0.25 0  8.5 0.25 0  8.75 0.25 0  9 0.25 0  9.25 0.25 0  9.5 0.25 0  9.75 0.25 0  10 0.25 0  10.25 0.25 0  10.5 0.25 0  10.75 0.25 0  11 0.25 0  11.25 0.25 0  11.5 0.25 0  11.75 0.25 0  12 0.25 0  12.25 0.25 0  12.5 0.25 0  12.75 0.25 0  13 0.25 0  13.25 0.25 0  13.5 0.25 0  13.75 0.25 0  14 0.25 0  14.25 0.25 0  14.5 0.25 0  14.75 0.25 0  15 0.25 0  15.25 0.25 0  15.5 0.25 0  15.75 0.25 0  16 0.25 0  16.25 0.25 0  16.5 0.25 0  16.75 0.25 0  17 0.25 0  17.25 0.25 0  17.5 0.25 0  17.75 0.25 0  18 0.25 0  18.25 0.25 0  18.5 0.25 0  18.75 0.25 0  19 0.25 0  19.25 0.25 0  19.5 0.25 0  19.75 0.25 0  20 0.25 0  20.25 0.25 0  20.5 0.25 0  20.75 0.25 0  21 0.25 0  21.25 0.25 0  21.5 0.25 0  21.75 0.25 0  22 0.25 0  22.25 0.25 0  22.5 0.25 0  22.75 0.25 0  23 0.25 0  23.25 0.25 0  23.5 0.25 0  23.75 0.25 0  24 0.25 0  24.25 0.25 0  24.5 0.25 0  24.75 0.25 0  25 0.25 0  0 0.5 0  0.25 0.5 0  0.5 0.5 0  0.75 0.5 0  1 0.5 0  1.25 0.5 0  1.5 0.5 0  1.75 0.5 0  2 0.5 0  2.25 0.5 0  2.5 0.5 0  2.75 0.5 0  3 0.5 0  3.25 0.5 0  3.5 0.5 0  3.75 0.5 0  4 0.5 0  4.25 0.5 0  4.5 0.5 0  4.75 0.5 0  5 0.5 0  5.25 0.5 0  5.5 0.5 0  5.75 0.5 0  6 0.5 0  6.25 0.5 0  6.5 0.5 0  6.75 0.5 0  7 0.5 0  7.25 0.5 0  7.5 0.5 0  7.75 0.5 0  8 0.5 0  8.25 0.5 0  8.5 0.5 0  8.75 0.5 0  9 0.5 0  9.25 0.5 0  9.5 0.5 0  9.75 0.5 0  10 0.5 0  10.25 0.5 0  10.5 0.5 0  10.75 0.5 0  11 0.5 0  11.25 0.5 0  11.5 0.5 0  11.75 0.5 0  12 0.5 0  12.25 0.5 0  12.5 0.5 0  12.75 0.5 0  13 0.5 0  13.25 0.5 0  13.5 0.5 0  13.75 0.5 0  14 0.5 0  14.25 0.5 0  14.5 0.5 0  14.75 0.5 0  15 0.5 0  15.25 0.5 0  15.5 0.5 0  15.75 0.5 0  16 0.5 0  16.25 0.5 0  16.5 0.5 0  16.75 0.5 0  17 0.5 0  17.25 0.5 0  17.5 0.5 0  17.75 0.5 0  18 0.5 0  18.25 0.5 0  18.5 0.5 0  18.75 0.5 0  19 0.5 0  19.25 0.5 0  19.5 0.5 0  19.75 0.5 0  20 0.5 0  20.25 0.5 0  20.5 0.5 0  20.75 0.5 0  21 0.5 0  21.25 0.5 0  21.5 0.5 0  21.75 0.5 0  22 0.5 0  22.25 0.5 0  22.5 0.5 0  22.75 0.5 0  23 0.5 0  23.25 0.5 0  23.5 0.5 0  23.75 0.5 0  24 0.5 0  24.25 0.5 0  24.5 0.5 0  24.75 0.5 0  25 0.5 0  0 0.75 0  0.25 0.75 0  0.5 0.75 0  0.75 0.75 0  1 0.75 0  1.25 0.75 0  1.5 0.75 0  1.75 0.75 0  2 0.75 0  2.25 0.75 0  2.5 0.75 0  2.75 0.75 0  3 0.75 0  3.25 0.75 0  3.5 0.75 0  3.75 0.75 0  4 0.75 0  4.25 0.75 0  4.5 0.75 0  4.75 0.75 0  5 0.75 0  5.25 0.75 0  5.5 0.75 0  5.75 0.75 0  6 0.75 0  6.25 0.75 0  6.5 0.75 0  6.75 0.75 0  7 0.75 0  7.25 0.75 0  7.5 0.75 0  7.75 0.75 0  8 0.75 0  8.25 0.75 0  8.5 0.75 0  8.75 0.75 0  9 0.75 0  9.25 0.75 0  9.5 0.75 0  9.75 0.75 0  10 0.75 0  10.25 0.75 0  10.5 0.75 0  10.75 0.75 0  11 0.75 0  11.25 0.75 0  11.5 0.75 0  11.75 0.75 0  12 0.75 0  12.25 0.75 0  12.5 0.75 0  12.75 0.75 0  13 0.75 0  13.25 0.75 0  13.5 0.75 0  13.75 0.75 0  14 0.75 0  14.25 0.75 0  14.5 0.75 0  14.75 0.75 0  15 0.75 0  15.25 0.75 0  15.5 0.75 0  15.75 0.75 0  16 0.75 0  16.25 0.75 0  16.5 0.75 0  16.75 0.75 0  17 0.75 0  17.25 0.75 0  17.5 0.75 0  17.75 0.75 0  18 0.75 0  18.25 0.75 0  18.5 0.75 0  18.75 0.75 0  19 0.75 0  19.25 0.75 0  19.5 0.75 0  19.75 0.75 0  20 0.75 0  20.25 0.75 0  20.5 0.75 0  20.75 0.75 0  21 0.75 0  21.25 0.75 0  21.5 0.75 0  21.75 0.75 0  22 0.75 0  22.25 0.75 0  22.5 0.75 0  22.75 0.75 0  23 0.75 0  23.25 0.75 0  23.5 0.75 0  23.75 0.75 0  24 0.75 0  24.25 0.75 0  24.5 0.75 0  24.75 0.75 0  25 0.75 0  0 1 0  0.25 1 0  0.5 1 0  0.75 1 0  1 1 0  1.25 1 0  1.5 1 0  1.75 1 0  2 1 0  2.25 1 0  2.5 1 0  2.75 1 0  3 1 0  3.25 1 0  3.5 1 0  3.75 1 0  4 1 0  4.25 1 0  4.5 1 0  4.75 1 0  5 1 0  5.25 1 0  5.5 1 0  5.75 1 0  6 1 0  6.25 1 0  6.5 1 0  6.75 1 0  7 1 0  7.25 1 0  7.5 1 0  7.75 1 0  8 1 0  8.25 1 0  8.5 1 0  8.75 1 0  9 1 0  9.25 1 0  9.5 1 0  9.75 1 0  10 1 0  10.25 1 0  10.5 1 0  10.75 1 0  11 1 0  11.25 1 0  11.5 1 0  11.75 1 0  12 1 0  12.25 1 0  12.5 1 0  12.75 1 0  13 1 0  13.25 1 0  13.5 1 0  13.75 1 0  14 1 0  14.25 1 0  14.5 1 0  14.75 1 0  15 1 0  15.25 1 0  15.5 1 0  15.75 1 0  16 1 0  16.25 1 0  16.5 1 0  16.75 1 0  17 1 0  17.25 1 0  17.5 1 0  17.75 1 0  18 1 0  18.25 1 0  18.5 1 0  18.75 1 0  19 1 0  19.25 1 0  19.5 1 0  19.75 1 0  20 1 0  20.25 1 0  20.5 1 0  20.75 1 0  21 1 0  21.25 1 0  21.5 1 0  21.75 1 0  22 1 0  22.25 1 0  22.5 1 0  22.75 1 0  23 1 0  23.25 1 0  23.5 1 0  23.75 1 0  24 1 0  24.25 1 0  24.5 1 0  24.75 1 0  25 1 0  0 1.25 0  0.25 1.25 0  0.5 1.25 0  0.75 1.25 0  1 1.25 0  1.25 1.25 0  1.5 1.25 0  1.75 1.25 0  2 1.25 0  2.25 1.25 0  2.5 1.25 0  2.75 1.25 0  3 1.25 0  3.25 1.25 0  3.5 1.25 0  3.75 1.25 0  4 1.25 0  4.25 1.25 0  4.5 1.25 0  4.75 1.25 0  5 1.25 0  5.25 1.25 0  5.5 1.25 0  5.75 1.25 0  6 1.25 0  6.25 1.25 0  6.5 1.25 0  6.75 1.25 0  7 1.25 0  7.25 1.25 0  7.5 1.25 0  7.75 1.25 0  8 1.25 0  8.25 1.25 0  8.5 1.25 0  8.75 1.25 0  9 1.25 0  9.25 1.25 0  9.5 1.25 0  9.75 1.25 0  10 1.25 0  10.25 1.25 0  10.5 1.25 0  10.75 1.25 0  11 1.25 0  11.25 1.25 0  11.5 1.25 0  11.75 1.25 0  12 1.25 0  12.25 1.25 0  12.5 1.25 0  12.75 1.25 0  13 1.25 0  13.25 1.25 0  13.5 1.25 0  13.75 1.25 0  14 1.25 0  14.25 1.25 0  14.5 1.25 0  14.75 1.25 0  15 1.25 0  15.25 1.25 0  15.5 1.25 0  15.75 1.25 0  16 1.25 0  16.25 1.25 0  16.5 1.25 0  16.75 1.25 0  17 1.25 0  17.25 1.25 0  17.5 1.25 0  17.75 1.25 0  18 1.25 0  18.25 1.25 0  18.5 1.25 0  18.75 1.25 0  19 1.25 0  19.25 1.25 0  19.5 1.25 0  19.75 1.25 0  20 1.25 0  20.25 1.25 0  20.5 1.25 0  20.75 1.25 0  21 1.25 0  21.25 1.25 0  21.5 1.25 0  21.75 1.25 0  22 1.25 0  22.25 1.25 0  22.5 1.25 0  22.75 1.25 0  23 1.25 0  23.25 1.25 0  23.5 1.25 0  23.75 1.25 0  24 1.25 0  24.25 1.25 0  24.5 1.25 0  24.75 1.25 0  25 1.25 0  0 1.5 0  0.25 1.5 0  0.5 1.5 0  0.75 1.5 0  1 1.5 0  1.25 1.5 0  1.5 1.5 0  1.75 1.5 0  2 1.5 0  2.25 1.5 0  2.5 1.5 0  2.75 1.5 0  3 1.5 0  3.25 1.5 0  3.5 1.5 0  3.75 1.5 0  4 1.5 0  4.25 1.5 0  4.5 1.5 0  4.75 1.5 0  5 1.5 0  5.25 1.5 0  5.5 1.5 0  5.75 1.5 0  6 1.5 0  6.25 1.5 0  6.5 1.5 0  6.75 1.5 0  7 1.5 0  7.25 1.5 0  7.5 1.5 0  7.75 1.5 0  8 1.5 0  8.25 1.5 0  8.5 1.5 0  8.75 1.5 0  9 1.5 0  9.25 1.5 0  9.5 1.5 0  9.75 1.5 0  10 1.5 0  10.25 1.5 0  10.5 1.5 0  10.75 1.5 0  11 1.5 0  11.25 1.5 0  11.5 1.5 0  11.75 1.5 0  12 1.5 0  12.25 1.5 0  12.5 1.5 0  12.75 1.5 0  13 1.5 0  13.25 1.5 0  13.5 1.5 0  13.75 1.5 0  14 1.5 0  14.25 1.5 0  14.5 1.5 0  14.75 1.5 0  15 1.5 0  15.25 1.5 0  15.5 1.5 0  15.75 1.5 0  16 1.5 0  16.25 1.5 0  16.5 1.5 0  16.75 1.5 0  17 1.5 0  17.25 1.5 0  17.5 1.5 0  17.75 1.5 0  18 1.5 0  18.25 1.5 0  18.5 1.5 0  18.75 1.5 0  19 1.5 0  19.25 1.5 0  19.5 1.5 0  19.75 1.5 0  20 1.5 0  20.25 1.5 0  20.5 1.5 0  20.75 1.5 0  21 1.5 0  21.25 1.5 0  21.5 1.5 0  21.75 1.5 0  22 1.5 0  22.25 1.5 0  22.5 1.5 0  22.75 1.5 0  23 1.5 0  23.25 1.5 0  23.5 1.5 0  23.75 1.5 0  24 1.5 0  24.25 1.5 0  24.5 1.5 0  24.75 1.5 0  25 1.5 0  0 1.75 0  0.25 1.75 0  0.5 1.75 0  0.75 1.75 0  1 1.75 0  1.25 1.75 0  1.5 1.75 0  1.75 1.75 0  2 1.75 0  2.25 1.75 0  2.5 1.75 0  2.75 1.75 0  3 1.75 0  3.25 1.75 0  3.5 1.75 0  3.75 1.75 0  4 1.75 0  4.25 1.75 0  4.5 1.75 0  4.75 1.75 0  5 1.75 0  5.25 1.75 0  5.5 1.75 0  5.75 1.75 0  6 1.75 0  6.25 1.75 0  6.5 1.75 0  6.75 1.75 0  7 1.75 0  7.25 1.75 0  7.5 1.75 0  7.75 1.75 0  8 1.75 0  8.25 1.75 0  8.5 1.75 0  8.75 1.75 0  9 1.75 0  9.25 1.75 0  9.5 1.75 0  9.75 1.75 0  10 1.75 0  10.25 1.75 0  10.5 1.75 0  10.75 1.75 0  11 1.75 0  11.25 1.75 0  11.5 1.75 0  11.75 1.75 0  12 1.75 0  12.25 1.75 0  12.5 1.75 0  12.75 1.75 0  13 1.75 0  13.25 1.75 0  13.5 1.75 0  13.75 1.75 0  14 1.75 0  14.25 1.75 0  14.5 1.75 0  14.75 1.75 0  15 1.75 0  15.25 1.75 0  15.5 1.75 0  15.75 1.75 0  16 1.75 0  16.25 1.75 0  16.5 1.75 0  16.75 1.75 0  17 1.75 0  17.25 1.75 0  17.5 1.75 0  17.75 1.75 0  18 1.75 0  18.25 1.75 0  18.5 1.75 0  18.75 1.75 0  19 1.75 0  19.25 1.75 0  19.5 1.75 0  19.75 1.75 0  20 1.75 0  20.25 1.75 0  20.5 1.75 0  20.75 1.75 0  21 1.75 0  21.25 1.75 0  21.5 1.75 0  21.75 1.75 0  22 1.75 0  22.25 1.75 0  22.5 1.75 0  22.75 1.75 0  23 1.75 0  23.25 1.75 0  23.5 1.75 0  23.75 1.75 0  24 1.75 0  24.25 1.75 0  24.5 1.75 0  24.75 1.75 0  25 1.75 0  0 2 0  0.25 2 0  0.5 2 0  0.75 2 0  1 2 0  1.25 2 0  1.5 2 0  1.75 2 0  2 2 0  2.25 2 0  2.5 2 0  2.75 2 0  3 2 0  3.25 2 0  3.5 2 0  3.75 2 0  4 2 0  4.25 2 0  4.5 2 0  4.75 2 0  5 2 0  5.25 2 0  5.5 2 0  5.75 2 0  6 2 0  6.25 2 0  6.5 2 0  6.75 2 0  7 2 0  7.25 2 0  7.5 2 0  7.75 2 0  8 2 0  8.25 2 0  8.5 2 0  8.75 2 0  9 2 0  9.25 2 0  9.5 2 0  9.75 2 0  10 2 0  10.25 2 0  10.5 2 0  10.75 2 0  11 2 0  11.25 2 0 
[...]
<PointData  Scalars="f_26"> 
<DataArray  type="Float64"  Name="f_26"  format="ascii">2.3806218328253644e-05  2.3804296292304264e-05  2.3800010678228632e-05  2.3793145801068708e-05  2.3783636392508104e-05  2.3771463995500133e-05  2.3756637486891072e-05  2.3739194246170737e-05  2.3719206994038183e-05  2.3696791971999823e-05  2.3672116653201187e-05  2.3645405857764461e-05  2.3616945411309964e-05  2.3587082680797243e-05  2.3556223538949689e-05  2.3524825566993569e-05  2.3493387597672687e-05  2.3462436004473746e-05  2.3432508428281625e-05  2.3404135865398215e-05  2.3377824188025855e-05  2.3354036201671669e-05  2.3333175245601737e-05  2.3315571115863280e-05  2.3301468774582173e-05  2.3291019985326295e-05  2.3284277786960778e-05  2.3281193668058027e-05  2.3281617432758549e-05  2.3285299962517229e-05  2.3291899227838707e-05  2.3300989869861914e-05  2.3312076428216606e-05  2.3324609913532269e-05  2.3338007032683584e-05  2.3351671076773372e-05  2.3365013325747885e-05  2.3377473807149310e-05  2.3388540339943142e-05  2.3397764963122627e-05  2.3404777064474204e-05  2.3409292765513014e-05  2.3411120365581048e-05  2.3410161884496054e-05  2.3406410954043398e-05  2.3399947482418733e-05  2.3390929644953972e-05  2.3379583835558838e-05  2.3366193246080951e-05  2.3351085727848337e-05  2.3334621536489130e-05  2.3317181476529358e-05  2.3299155858655201e-05  2.3280934575096430e-05  2.3262898502748591e-05  2.3245412370499179e-05  2.3228819178135947e-05  2.3213436216875938e-05  2.3199552690668642e-05  2.3187428842925296e-05  2.3177296336061845e-05  2.3169359421419417e-05  2.3163796225931598e-05  2.3160759355702950e-05  2.3160375068516666e-05  2.3162740552315186e-05  2.3167919340435299e-05  2.3175935479029785e-05  2.3186767557012711e-05  2.3200343939565608e-05  2.3216540421605011e-05  2.3235181073854878e-05  2.3256042439462740e-05  2.3278860646389025e-05  2.3303340586719858e-05  2.3329166146664382e-05  2.3356010526627911e-05  2.3383545889467211e-05  2.3411451826945666e-05  2.3439422372512952e-05  2.3467171479187536e-05  2.3494437017492644e-05  2.3520983436571651e-05  2.3546603281091686e-05  2.3571117774654651e-05  2.3594376672504566e-05  2.3616257557560842e-05  2.3636664710755614e-05  2.3655527637355401e-05  2.3672799284112183e-05  2.3688453945757358e-05  2.3702484839557399e-05  2.3714901326361020e-05  2.3725725775002232e-05  2.3734990099013928e-05  2.3742732029557631e-05  2.3748991203248152e-05  2.3753805073617459e-05  2.3757204261878502e-05  2.3759205211841942e-05  2.3759790032465104e-05  2.3803471686648022e-05  2.3801979692505121e-05  2.3797810139139129e-05  2.3790992836063397e-05  2.3781518211256256e-05  2.3769382257706542e-05  2.3754598585611880e-05  2.3737206720931568e-05  2.3717280679578453e-05  2.3694937590483503e-05  2.3670345508649105e-05  2.3643729535465370e-05  2.3615375457309784e-05  2.3585630262490545e-05  2.3554899098874574e-05  2.3523638486667005e-05  2.3492345889242166e-05  2.3461546046349963e-05  2.3431774757967501e-05  2.3403561039501643e-05  2.3377408716235152e-05  2.3353778557704947e-05  2.3333071953153645e-05  2.3315616901622409e-05  2.3301656774853299e-05  2.3291341989424275e-05  2.3284724500465778e-05  2.3281754982037153e-05  2.3282282689681625e-05  2.3286058213780913e-05  2.3292739479998092e-05  2.3301901316484964e-05  2.3313048662551977e-05  2.3325633115319707e-05  2.3339072121657836e-05  2.3352769826280911e-05  2.3366138432263014e-05  2.3378618914727034e-05  2.3389700022029095e-05  2.3398934667043078e-05  2.3405953026013158e-05  2.3410471902177956e-05  2.3412300157559119e-05  2.3411340252053109e-05  2.3407586139341237e-05  2.3401117942511258e-05  2.3392093961159578e-05  2.3380740642619778e-05  2.3367341182688498e-05  2.3352223408447848e-05  2.3335747542975952e-05  2.3318294367609003e-05  2.3300254194219910e-05  2.3282016952743715e-05  2.3263963603195542e-05  2.3246459007802898e-05  2.3229846349183866e-05  2.3214443142793265e-05  2.3200538841271300e-05  2.3188393935113648e-05  2.3178240299083387e-05  2.3170282326725332e-05  2.3164698186490705e-05  2.3161640407604046e-05  2.3161235054147076e-05  2.3163579026910747e-05  2.3168735520808846e-05  2.3176728245014083e-05  2.3187535504817322e-05  2.3201085475383306e-05  2.3217253876824824e-05  2.3235864821949490e-05  2.3256694998534538e-05  2.3279480758216882e-05  2.3303927270183259e-05  2.3329718728603078e-05  2.3356528655776020e-05  2.3384029539406659e-05  2.3411901292869019e-05  2.3439838264761953e-05  2.3467554714608500e-05  2.3494788808004052e-05  2.3521305273242073e-05  2.3546896911630826e-05  2.3571385172523554e-05  2.3594619996701546e-05  2.3616479103312350e-05  2.3636866852612534e-05  2.3655712767385135e-05  2.3672969748855920e-05  2.3688611986314104e-05  2.3702632539558693e-05  2.3715040572850071e-05  2.3725858237812812e-05  2.3735117236698186e-05  2.3742855139558839e-05  2.3749111571394639e-05  2.3753924430364144e-05  2.3757326418389964e-05  2.3759342845931445e-05  2.3759995718809631e-05  2.3796747694470334e-05  2.3795373818276855e-05  2.3791305144358579e-05  2.3784572596169316e-05  2.3775184400535221e-05  2.3763147934010435e-05  2.3748483593393171e-05  2.3731235464430940e-05  2.3711481010596785e-05  2.3689340084623541e-05  2.3664982805463310e-05  2.3638635611419044e-05  2.3610584790322885e-05  2.3581176892479844e-05  2.3550815614953251e-05  2.3519954987603377e-05  2.3489088972495903e-05  2.3458737883620042e-05  2.3429432312507528e-05  2.3401695473272235e-05  2.3376025023707893e-05  2.3352875447705996e-05  2.3332641980485570e-05  2.3315646827657387e-05  2.3302128114690672e-05  2.3292231688505339e-05  2.3286005681229853e-05  2.3283397712672061e-05  2.3284254747504103e-05  2.3288325836064217e-05  2.3295268106357119e-05  2.3304656325643541e-05  2.3315996095424927e-05  2.3328740362776590e-05  2.3342308545755956e-05  2.3356107281610663e-05  2.3369551659178109e-05  2.3382085786265902e-05  2.3393201638413080e-05  2.3402455303477301e-05  2.3409479949689945e-05  2.3413995082155873e-05  2.3415811896268073e-05  2.3414834769527069e-05  2.3411059141061623e-05  2.3404566199274943e-05  2.3395514925131484e-05  2.3384132118272081e-05  2.3370701065310993e-05  2.3355549496967303e-05  2.3339037428469539e-05  2.3321545394452124e-05  2.3303463487296974e-05  2.3285181501284215e-05  2.3267080389055028e-05  2.3249525162839299e-05  2.3232859322526616e-05  2.3217400854646895e-05  2.3203439796667425e-05  2.3191237270686306e-05  2.3181025740614281e-05  2.3173010046226983e-05  2.3167368564520504e-05  2.3164253726525728e-05  2.3163791166308494e-05  2.3166077052563316e-05  2.3171173629692925e-05  2.3179103561744402e-05  2.3189844154591139e-05  2.3203322759645807e-05  2.3219414546038165e-05  2.3237943400355256e-05  2.3258686115625940e-05  2.3281379451177557e-05  2.3305729235832718e-05  2.3331420517249014e-05  2.3358127809352493e-05  2.3385524681280774e-05  2.3413292177518051e-05  2.3441125793835314e-05  2.3468740923359781e-05  2.3495876823874305e-05  2.3522299247074033e-05  2.3547801921717690e-05  2.3572207102306903e-05  2.3595365388185593e-05  2.3617154989893821e-05  2.3637480576797904e-05  2.3656271790573603e-05  2.3673481461842025e-05  2.3689083530298956e-05  2.3703070648247350e-05  2.3715451446857964e-05  2.3726247463775199e-05  2.3735489766934777e-05  2.3743215358265776e-05  2.3749463500227337e-05  2.3754272187728956e-05  2.3757675131931344e-05  2.3759699932593710e-05  2.3760368520663295e-05  2.3785913190548685e-05  2.3784588872544519e-05  2.3780604678332517e-05  2.3773977039927890e-05  2.3764716700567625e-05  2.3752837210777852e-05  2.3738365147699036e-05  2.3721350164229395e-05  2.3701874636910229e-05  2.3680062617676866e-05  2.3656087557647749e-05  2.3630178149069609e-05  2.3602621632009992e-05  2.3573764009943644e-05  2.3544006792841819e-05  2.3513800120264884e-05  2.3483632390060872e-05  2.3454016805175716e-05  2.3425475521351977e-05  2.3398522298397208e-05  2.3373644693008062e-05  2.3351286851811544e-05  2.3331833851917521e-05  2.3315598300990964e-05  2.3302809596518265e-05  2.3293605941552216e-05  2.3288029024237909e-05  2.3286021258527606e-05  2.3287425637764931e-05  2.3291988464357391e-05  2.3299365341107652e-05  2.3309130738619559e-05  2.3320791182329077e-05  2.3333801717775146e-05  2.3347584934788298e-05  2.3361551555235511e-05  2.3375121454118957e-05  2.3387743981633470e-05  2.3398916553025048e-05  2.3408200640990506e-05  2.3415234516019585e-05  2.3419742313570700e-05  2.3421539245992956e-05  2.3420533005475825e-05  2.3416721607646755e-05  2.3410188092608276e-05  2.3401092624131518e-05  2.3389662605219647e-05  2.3376181459321007e-05  2.3360976713708440e-05  2.3344407970124604e-05  2.3326855265914378e-05  2.3308708228062043e-05  2.3290356317085404e-05  2.3272180362305816e-05  2.3254545515618447e-05  2.3237795699777810e-05  2.3222249588973304e-05  2.3208198111331097e-05  2.3195903377041786e-05  2.3185598793411603e-05  2.3177489937145058e-05  2.3171755560472076e-05  2.3168547990682022e-05  2.3167992229150124e-05  2.3170183318915715e-05  2.3175182008611976e-05  2.3183009286911797e-05  2.3193640827523414e-05  2.3207002606021579e-05  2.3222968838565288e-05  2.3241362979396198e-05  2.3261961935143349e-05  2.3284503089800900e-05  2.3308693333859846e-05  2.3334219122149547e-05  2.3360756628991310e-05  2.3387981253341295e-05  2.3415575966283814e-05  2.3443238224028278e-05  2.3470685357736309e-05  2.3497658488600411e-05  2.3523925107424874e-05  2.3549280510511674e-05  2.3573548304445615e-05  2.3596580186375531e-05  2.3618255178748794e-05  2.3638478454787684e-05  2.3657179841460148e-05  2.3674312039122291e-05  2.3689848559585391e-05  2.3703781363367386e-05  2.3716118175776966e-05  2.3726879480486575e-05  2.3736095225699485e-05  2.3743801327359614e-05  2.3750036111456125e-05  2.3754836900126365e-05  2.3758237007302430e-05  2.3760263420443545e-05  2.3760935155402357e-05  2.3771032486660555e-05  2.3769743607377140e-05  2.3765842745345819e-05  2.3759339101439637e-05  2.3750243746881878e-05  2.3738574487376902e-05  2.3724363680891895e-05  2.3707667144286042e-05  2.3688573216344797e-05  2.3667211296099038e-05  2.3643759186885209e-05  2.3618448567211658e-05  2.3591567951665236e-05  2.3563462615179699e-05  2.3534531129291632e-05  2.3505218388231574e-05  2.3476005267897281e-05  2.3447395337822027e-05  2.3419899305781028e-05  2.3394018083512338e-05  2.3370225485889825e-05  2.3348951584661801e-05  2.3330567615428864e-05  2.3315373094919088e-05  2.3303585497572629e-05  2.3295332557074211e-05  2.3290647099603433e-05  2.3289464337786591e-05  2.3291621726979925e-05  2.3296861692583845e-05  2.3304837635262000e-05  2.3315123519535139e-05  2.3327227059293495e-05  2.3340606124924049e-05  2.3354687630013297e-05  2.3368887897727761e-05  2.3382633389090472e-05  2.3395380684360614e-05  2.3406634712693248e-05  2.3415964392892511e-05  2.3423015055314223e-05  2.3427517243270724e-05  2.3429291725215432e-05  2.3428250770951232e-05  2.3424395942248133e-05  2.3417812809905671e-05  2.3408663128774904e-05  2.3397175076654586e-05  2.3383632192412697e-05  2.3368361635705326e-05  2.3351722340215736e-05  2.3334093552206391e-05  2.3315864147360459e-05  2.3297423015055900e-05  2.3279150704579270e-05  2.3261412453220245e-05  2.3244552664377756e-05  2.3228890865448189e-05  2.3214719129168420e-05  2.3202300861821312e-05  2.3191870729109615e-05  2.3183635312163400e-05  2.3177773904649158e-05  2.3174438752016230e-05  2.3173754078157969e-05  2.3175813494091233e-05  2.3180675818921474e-05  2.3188359863191284e-05  2.3198839168855353e-05  2.3212037911837868e-05  2.3227829067744015e-05  2.3246035546790877e-05  2.3266434449350244e-05  2.3288764050550568e-05  2.3312732734196021e-05  2.3338028929046668e-05  2.3364331138424141e-05  2.3391317328785536e-05  2.3418673174020794e-05  2.3446098877520709e-05  2.3473314480098481e-05  2.3500063699227359e-05  2.3526116437321314e-05  2.3551270150939005e-05  2.3575350294855650e-05  2.3598210049776475e-05  2.3619729515261600e-05  2.3639814506884863e-05  2.3658395046964538e-05  2.3675423590227272e-05  2.3690872987699608e-05  2.3704734170268967e-05  2.3717013531202075e-05  2.3727730004689752e-05  2.3736911872315352e-05  2.3744593375776356e-05  2.3750811264805711e-05  2.3755601453990377e-05  2.3758995983391950e-05  2.3761020436211454e-05  2.3761691787623132e-05  2.3752259630144134e-05  2.3751005358640123e-05  2.3747195155927939e-05  2.3740836259967584e-05  2.3731941221579456e-05  2.3720532157227880e-05  2.3706647426123075e-05  2.3690349600020782e-05  2.3671733810246353e-05  2.3650935687723594e-05  2.3628138162358905e-05  2.3603576426989217e-05  2.3577540443021371e-05  2.3550374488874118e-05  2.3522473431160045e-05  2.3494275624484847e-05  2.3466252603049591e-05  2.3438895993429951e-05  2.3412702324775142e-05  2.3388156607608944e-05  2.3365715661125692e-05  2.3345792161614111e-05  2.3328740247787046e-05  2.3314843270168823e-05  2.3304303971497118e-05  2.3297237128431041e-05  2.3293664566317584e-05  2.3293512519670315e-05  2.3296611502718577e-05  2.3302699051645151e-05  2.3311425765910583e-05  2.3322364937644456e-05  2.3335025742636297e-05  2.3348869575675454e-05  2.3363328761975254e-05  2.3377826641508950e-05  2.3391797925698409e-05  2.3404708247979315e-05  2.3416071939030380e-05  2.3425467224492206e-05  2.3432548245939765e-05  2.3437053527743482e-05  2.3438810737831123e-05  2.3437737804372172e-05  2.3433840639816561e-05  2.3427207878459117e-05  2.3418003147589904e-05  2.3406455462758657e-05  2.3392848364992045e-05  2.3377508404443632e-05  2.3360793525608897e-05  2.3343081831223499e-05  2.3324761105640818e-05  2.3306219376816443e-05  2.3287836702636652e-05  2.3269978292882464e-05  2.3252989025766826e-05  2.3237189379665613e-05  2.3222872757036839e-05  2.3210304103919607e-05  2.3199719607324422e-05  2.3191327089457148e-05  2.3185306550804187e-05  2.3181810212866433e-05  2.3180961453139964e-05  2.3182852258224259e-05  2.3187539229124883e-05  2.3195038660799690e-05  2.3205321635815989e-05  2.3218310271792187e-05  2.3233876163382148e-05  2.3251841686947924e-05  2.3271984310157847e-05  2.3294043531291714e-05  2.3317729699798253e-05  2.3342733804968996e-05  2.3368737350645863e-05  2.3395421597647627e-05  2.3422475676625551e-05  2.3449603292798136e-05  2.3476527927430460e-05  2.3502996578533675e-05  2.3528782177111027e-05  2.3553684871211917e-05  2.3577532393515278e-05  2.3600179723870298e-05  2.3621508231449638e-05  2.3641424438701250e-05  2.3659858499373589e-05  2.3676762434388168e-05  2.3692108130434537e-05  2.3705885083163279e-05  2.3718097863227605e-05  2.3728763299361692e-05  2.3737907405113220e-05  2.3745562118840831e-05  2.3751761971835244e-05  2.3756540836292889e-05  2.3759928919748059e-05  2.3761950149601587e-05  2.3762620026603021e-05  2.3729812380951131e-05  2.3728595389674839e-05  2.3724886656553661e-05  2.3718694142010228e-05  2.3710033279126564e-05  2.3698931186812604e-05  2.3685432760818969e-05  2.3669607925026718e-05  2.3651559268016661e-05  2.3631429303519706e-05  2.3609406621515417e-05  2.3585730245355476e-05  2.3560691595788503e-05  2.3534633595418561e-05  2.3507946628197528e-05  2.3481061290875361e-05  2.3454438122311328e-05  2.3428554750924573e-05  2.3403891133025823e-05  2.3380913732970302e-05  2.3360059585695431e-05  2.3341721154655295e-05  2.3326232744032380e-05  2.3313858969119511e-05  2.3304785501730845e-05  2.3299112086282969e-05  2.3296847752446654e-05  2.3297908253797700e-05  2.3302115970028405e-05  2.3309202690212345e-05  2.3318815719855730e-05  2.3330527574273207e-05  2.3343849181962568e-05  2.3358246132679951e-05  2.3373157174563916e-05  2.3388013956830365e-05  2.3402260940177815e-05  2.3415374433237666e-05  2.3426879827986934e-05  2.3436366272939828e-05  2.3443498220693914e-05  2.3448023500748924e-05  2.3449777785081948e-05  2.3448685518675926e-05  2.3444757567564789e-05  2.3438085983602825e-05  2.3428836392485008e-05  2.3417238577359003e-05  2.3403575855109033e-05  2.3388173828487178e-05  2.3371389049115894e-05  2.3353598050801371e-05  2.3335187119241606e-05  2.3316543065253938e-05  2.3298045177021764e-05  2.3280058452955455e-05  2.3262928164158919e-05  2.3246975757457713e-05  2.3232496069134918e-05  2.3219755753254143e-05  2.3208992720057131e-05  2.3200416233147682e-05  2.3194207163569080e-05  2.3190517807529625e-05  2.3189470713856376e-05  2.3191156182747659e-05  2.3195628474802362e-05  2.3202901221407738e-05  2.3212942915548562e-05  2.3225673548174919e-05  2.3240963363239497e-05  2.3258634356171643e-05  2.3278464646769160e-05  2.3300195368681581e-05  2.3323539361452426e-05  2.3348190789641732e-05  2.3373834837319505e-05  2.3400156778089950e-05  2.3426849930718384e-05  2.3453622221883789e-05  2.3480201258011754e-05  2.3506337945905670e-05  2.3531808797397917e-05  2.3556417111055059e-05  2.3579993248889781e-05  2.3602394222633011e-05  2.3623502777753103e-05  2.3643226120959343e-05  2.3661494386699418e-05  2.3678258889007121e-05  2.3693490165148842e-05  2.3707175793135140e-05  2.3719317959776588e-05  2.3729930769760747e-05  2.3739037316131600e-05  2.3746666572647776e-05  2.3752850210727290e-05  2.3757619478739159e-05  2.3761002300063326e-05  2.3763020742891460e-05  2.3763688995775648e-05  2.3703964955430851e-05  2.3702788756367320e-05  2.3699193228847895e-05  2.3693188374346844e-05  2.3684793532415059e-05  2.3674041529102108e-05  2.3660984345831445e-05  2.3645699761065819e-05  2.3628298297392343e-05  2.3608929766322474e-05  2.3587788709644937e-05  2.3565118082885110e-05  2.3541210616608430e-05  2.3516407427891890e-05  2.3491093635440848e-05  2.3465690949580374e-05  2.3440647448387684e-05  2.3416424992893970e-05  2.3393484950554395e-05  2.3372273054539170e-05  2.3353204292694840e-05  2.3336648668027493e-05  2.3322918499273460e-05  2.3312257671291394e-05  2.3304832978385181e-05  2.3300727527303664e-05  2.3299936152669295e-05  2.3302362944354954e-05  2.3307821204800517e-05  2.3316036307602407e-05  2.3326651905991124e-05  2.3339239715507611e-05  2.3353312735594879e-05  2.3368341392893549e-05  2.3383771784371417e-05  2.3399045020974756e-05  2.3413616622550266e-05  2.3426974965272143e-05  2.3438657902266077e-05  2.3448266842178003e-05  2.3455477762171271e-05  2.3460048837681131e-05  2.3461824577939875e-05  2.3460736550590978e-05  2.3456800948960595e-05  2.3450113393144776e-05  2.3440841456030013e-05  2.3429215465932821e-05  2.3415518159333822e-05  2.3400073742569013e-05  2.3383236874435353e-05  2.3365382008764588e-05  2.3346893446048430e-05  2.3328156347481000e-05  2.3309548875498579e-05  2.3291435552063791e-05  2.3274161873519225e-05  2.3258050183400990e-05  2.3243396766887199e-05  2.3230470071997491e-05  2.3219509867567260e-05  2.3210727018738414e-05  2.3204303427446041e-05  2.3200391604695165e-05  2.3199113378293332e-05  2.3200557436328496e-05  2.3204775751168381e-05  2.3211779342294690e-05  2.3221534192040253e-05  2.3233958299341267e-05  2.3248920771656669e-05  2.3266243532600252e-05  2.3285705763305045e-05  2.3307050737442970e-05  2.3329994372080827e-05  2.3354234658948702e-05  2.3379461157091776e-05  2.3405363867364076e-05  2.3431641007457634e-05  2.3458005409878455e-05  2.3484189442470084e-05  2.3509948488898650e-05  2.3535063123656551e-05  2.3559340175847088e-05  2.3582612902399696e-05  2.3604740488846425e-05  2.3625607069788808e-05  2.3645120418685933e-05  2.3663210405954419e-05  2.3679827274438760e-05  2.3694939740235112e-05  2.3708532900898682e-05  2.3720605925722574e-05  2.3731169514297676e-05  2.3740243137002813e-05  2.3747852108775953e-05  2.3754024587981238e-05  2.3758788627273177e-05  2.3762169425967112e-05  2.3764186939991957e-05  2.3764853999252925e-05  2.3675044908052147e-05  2.3673912965230117e-05  2.3670441989713850e-05  2.3664644676756290e-05  2.3656544902378361e-05  2.3646181702293203e-05  2.3633614536675219e-05  2.3618929356387000e-05  2.3602244869490006e-05  2.3583718352228434e-05  2.3563550346058691e-05  2.3541987627301397e-05  2.3519323927991455e-05  2.3495898024487110e-05  2.3472088990104407e-05  2.3448308620457393e-05  2.3424991270771058e-05  2.3402581572456145e-05  2.3381520694261097e-05  2.3362231948286930e-05  2.3345106579639734e-05  2.3330490498416252e