<?xml version="1.0"?>
<VTKFile type="UnstructuredGrid"  version="0.1"  >
<UnstructuredGrid>
<Piece  NumberOfPoints="10201" NumberOfCells="20000">
<Points>
<DataArray  type="Float64"  NumberOfComponents="3"  format="ascii">0 0 0  0.25 0 0  0.5 0 0  0.75 0 0  1 0 0  1.25 0 0  1.5 0 0  1.75 0 0  2 0 0  2.25 0 0  2.5 0 0  2.75 0 0  3 0 0  3.25 0 0  3.5 0 0  3.75 0 0  4 0 0  4.25 0 0  4.5 0 0  4.75 0 0  5 0 0  5.25 0 0  5.5 0 0  5.75 0 0  6 0 0  6.25 0 0  6.5 0 0  6.75 0 0  7 0 0  7.25 0 0  7.5 0 0  7.75 0 0  8 0 0  8.25 0 0  8.5 0 0  8.75 0 0  9 0 0  9.25 0 0  9.5 0 0  9.75 0 0  10 0 0  10.25 0 0  10.5 0 0  10.75 0 0  11 0 0  11.25 0 0  11.5 0 0  11.75 0 0  12 0 0  12.25 0 0  12.5 0 0  12.75 0 0  13 0 0  13.25 0 0  13.5 0 0  13.75 0 0  14 0 0  14.25 0 0  14.5 0 0  14.75 0 0  15 0 0  15.25 0 0  15.5 0 0  15.75 0 0  16 0 0  16.25 0 0  16.5 0 0  16.75 0 0  17 0 0  17.25 0 0  17.5 0 0  17.75 0 0  18 0 0  18.25 0 0  18.5 0 0  18.75 0 0  19 0 0  19.25 0 0  19.5 0 0  19.75 0 0  20 0 0  20.25 0 0  20.5 0 0  20.75 0 0  21 0 0  21.25 0 0  21.5 0 0  21.75 0 0  22 0 0  22.25 0 0  22.5 0 0  22.75 0 0  23 0 0  23.25 0 0  23.5 0 0  23.75 0 0  24 0 0  24.25 0 0  24.5 0 0  24.75 0 0  25 0 0  0 0.25 0  0.25 0.25 0  0.5 0.25 0  0.75 0.25 0  1 0.25 0  1.25 0.25 0  1.5 0.25 0  1.75 0.25 0  2 0.25 0  2.25 0.25 0  2.5 0.25 0  2.75 0.25 0  3 0.25 0  3.25 0.25 0  3.5 0.25 0  3.75 0.25 0  4 0.25 0  4.25 0.25 0  4.5 0.25 0  4.75 0.25 0  5 0.25 0  5.25 0.25 0  5.5 0.25 0  5.75 0.25 0  6 0.25 0  6.25 0.25 0  6.5 0.25 0  6.75 0.25 0  7 0.25 0  7.25 0.25 0  7.5 0.25 0  7.75 0.25 0  8 0.25 0  8.25 0.25 0  8.5 0.25 0  8.75 0.25 0  9 0.25 0  9.25 0.25 0  9.5 0.25 0  9.75 0.25 0  10 0.25 0  10.25 0.25 0  10.5 0.25 0  10.75 0.25 0  11 0.25 0  11.25 0.25 0  11.5 0.25 0  11.75 0.25 0  12 0.25 0  12.25 0.25 0  12.5 0.25 0  12.75 0.25 0  13 0.25 0  13.25 0.25 0  13.5 0.25 0  13.75 0.25 0  14 0.25 0  14.25 0.25 0  14.5 0.25 0  14.75 0.25 0  15 0.25 0  15.25 0.25 0  15.5 0.25 0  15.75 0.25 0  16 0.25 0  16.25 0.25 0  16.5 0.25 0  16.75 0.25 0  17 0.25 0  17.25 0.25 0  17.5 0.25 0  17.75 0.25 0  18 0.25 0  18.25 0.25 0  18.5 0.25 0  18.75 0.25 0  19 0.25 0  19.25 0.25 0  19.5 0.25 0  19.75 0.25 0  20 0.25 0  20.25 0.25 0  20.5 0.25 0  20.75 0.25 0  21 0.25 0  21.25 0.25 0  21.5 0.25 0  21.75 0.25 0  22 0.25 0  22.25 0.25 0  22.5 0.25 0  22.75 0.25 0  23 0.25 0  23.25 0.25 0  23.5 0.25 0  23.75 0.25 0  24 0.25 0  24.25 0.25 0  24.5 0.25 0  24.75 0.25 0  25 0.25 0  0 0.5 0  0.25 0.5 0  0.5 0.5 0  0.75 0.5 0  1 0.5 0  1.25 0.5 0  1.5 0.5 0  1.75 0.5 0  2 0.5 0  2.25 0.5 0  2.5 0.5 0  2.75 0.5 0  3 0.5 0  3.25 0.5 0  3.5 0.5 0  3.75 0.5 0  4 0.5 0  4.25 0.5 0  4.5 0.5 0  4.75 0.5 0  5 0.5 0  5.25 0.5 0  5.5 0.5 0  5.75 0.5 0  6 0.5 0  6.25 0.5 0  6.5 0.5 0  6.75 0.5 0  7 0.5 0  7.25 0.5 0  7.5 0.5 0  7.75 0.5 0  8 0.5 0  8.25 0.5 0  8.5 0.5 0  8.75 0.5 0  9 0.5 0  9.25 0.5 0  9.5 0.5 0  9.75 0.5 0  10 0.5 0  10.25 0.5 0  10.5 0.5 0  10.75 0.5 0  11 0.5 0  11.25 0.5 0  11.5 0.5 0  11.75 0.5 0  12 0.5 0  12.25 0.5 0  12.5 0.5 0  12.75 0.5 0  13 0.5 0  13.25 0.5 0  13.5 0.5 0  13.75 0.5 0  14 0.5 0  14.25 0.5 0  14.5 0.5 0  14.75 0.5 0  15 0.5 0  15.25 0.5 0  15.5 0.5 0  15.75 0.5 0  16 0.5 0  16.25 0.5 0  16.5 0.5 0  16.75 0.5 0  17 0.5 0  17.25 0.5 0  17.5 0.5 0  17.75 0.5 0  18 0.5 0  18.25 0.5 0  18.5 0.5 0  18.75 0.5 0  19 0.5 0  19.25 0.5 0  19.5 0.5 0  19.75 0.5 0  20 0.5 0  20.25 0.5 0  20.5 0.5 0  20.75 0.5 0  21 0.5 0  21.25 0.5 0  21.5 0.5 0  21.75 0.5 0  22 0.5 0  22.25 0.5 0  22.5 0.5 0  22.75 0.5 0  23 0.5 0  23.25 0.5 0  23.5 0.5 0  23.75 0.5 0  24 0.5 0  24.25 0.5 0  24.5 0.5 0  24.75 0.5 0  25 0.5 0  0 0.75 0  0.25 0.75 0  0.5 0.75 0  0.75 0.75 0  1 0.75 0  1.25 0.75 0  1.5 0.75 0  1.75 0.75 0  2 0.75 0  2.25 0.75 0  2.5 0.75 0  2.75 0.75 0  3 0.75 0  3.25 0.75 0  3.5 0.75 0  3.75 0.75 0  4 0.75 0  4.25 0.75 0  4.5 0.75 0  4.75 0.75 0  5 0.75 0  5.25 0.75 0  5.5 0.75 0  5.75 0.75 0  6 0.75 0  6.25 0.75 0  6.5 0.75 0  6.75 0.75 0  7 0.75 0  7.25 0.75 0  7.5 0.75 0  7.75 0.75 0  8 0.75 0  8.25 0.75 0  8.5 0.75 0  8.75 0.75 0  9 0.75 0  9.25 0.75 0  9.5 0.75 0  9.75 0.75 0  10 0.75 0  10.25 0.75 0  10.5 0.75 0  10.75 0.75 0  11 0.75 0  11.25 0.75 0  11.5 0.75 0  11.75 0.75 0  12 0.75 0  12.25 0.75 0  12.5 0.75 0  12.75 0.75 0  13 0.75 0  13.25 0.75 0  13.5 0.75 0  13.75 0.75 0  14 0.75 0  14.25 0.75 0  14.5 0.75 0  14.75 0.75 0  15 0.75 0  15.25 0.75 0  15.5 0.75 0  15.75 0.75 0  16 0.75 0  16.25 0.75 0  16.5 0.75 0  16.75 0.75 0  17 0.75 0  17.25 0.75 0  17.5 0.75 0  17.75 0.75 0  18 0.75 0  18.25 0.75 0  18.5 0.75 0  18.75 0.75 0  19 0.75 0  19.25 0.75 0  19.5 0.75 0  19.75 0.75 0  20 0.75 0  20.25 0.75 0  20.5 0.75 0  20.75 0.75 0  21 0.75 0  21.25 0.75 0  21.5 0.75 0  21.75 0.75 0  22 0.75 0  22.25 0.75 0  22.5 0.75 0  22.75 0.75 0  23 0.75 0  23.25 0.75 0  23.5 0.75 0  23.75 0.75 0  24 0.75 0  24.25 0.75 0  24.5 0.75 0  24.75 0.75 0  25 0.75 0  0 1 0  0.25 1 0  0.5 1 0  0.75 1 0  1 1 0  1.25 1 0  1.5 1 0  1.75 1 0  2 1 0  2.25 1 0  2.5 1 0  2.75 1 0  3 1 0  3.25 1 0  3.5 1 0  3.75 1 0  4 1 0  4.25 1 0  4.5 1 0  4.75 1 0  5 1 0  5.25 1 0  5.5 1 0  5.75 1 0  6 1 0  6.25 1 0  6.5 1 0  6.75 1 0  7 1 0  7.25 1 0  7.5 1 0  7.75 1 0  8 1 0  8.25 1 0  8.5 1 0  8.75 1 0  9 1 0  9.25 1 0  9.5 1 0  9.75 1 0  10 1 0  10.25 1 0  10.5 1 0  10.75 1 0  11 1 0  11.25 1 0  11.5 1 0  11.75 1 0  12 1 0  12.25 1 0  12.5 1 0  12.75 1 0  13 1 0  13.25 1 0  13.5 1 0  13.75 1 0  14 1 0  14.25 1 0  14.5 1 0  14.75 1 0  15 1 0  15.25 1 0  15.5 1 0  15.75 1 0  16 1 0  16.25 1 0  16.5 1 0  16.75 1 0  17 1 0  17.25 1 0  17.5 1 0  17.75 1 0  18 1 0  18.25 1 0  18.5 1 0  18.75 1 0  19 1 0  19.25 1 0  19.5 1 0  19.75 1 0  20 1 0  20.25 1 0  20.5 1 0  20.75 1 0  21 1 0  21.25 1 0  21.5 1 0  21.75 1 0  22 1 0  22.25 1 0  22.5 1 0  22.75 1 0  23 1 0  23.25 1 0  23.5 1 0  23.75 1 0  24 1 0  24.25 1 0  24.5 1 0  24.75 1 0  25 1 0  0 1.25 0  0.25 1.25 0  0.5 1.25 0  0.75 1.25 0  1 1.25 0  1.25 1.25 0  1.5 1.25 0  1.75 1.25 0  2 1.25 0  2.25 1.25 0  2.5 1.25 0  2.75 1.25 0  3 1.25 0  3.25 1.25 0  3.5 1.25 0  3.75 1.25 0  4 1.25 0  4.25 1.25 0  4.5 1.25 0  4.75 1.25 0  5 1.25 0  5.25 1.25 0  5.5 1.25 0  5.75 1.25 0  6 1.25 0  6.25 1.25 0  6.5 1.25 0  6.75 1.25 0  7 1.25 0  7.25 1.25 0  7.5 1.25 0  7.75 1.25 0  8 1.25 0  8.25 1.25 0  8.5 1.25 0  8.75 1.25 0  9 1.25 0  9.25 1.25 0  9.5 1.25 0  9.75 1.25 0  10 1.25 0  10.25 1.25 0  10.5 1.25 0  10.75 1.25 0  11 1.25 0  11.25 1.25 0  11.5 1.25 0  11.75 1.25 0  12 1.25 0  12.25 1.25 0  12.5 1.25 0  12.75 1.25 0  13 1.25 0  13.25 1.25 0  13.5 1.25 0  13.75 1.25 0  14 1.25 0  14.25 1.25 0  14.5 1.25 0  14.75 1.25 0  15 1.25 0  15.25 1.25 0  15.5 1.25 0  15.75 1.25 0  16 1.25 0  16.25 1.25 0  16.5 1.25 0  16.75 1.25 0  17 1.25 0  17.25 1.25 0  17.5 1.25 0  17.75 1.25 0  18 1.25 0  18.25 1.25 0  18.5 1.25 0  18.75 1.25 0  19 1.25 0  19.25 1.25 0  19.5 1.25 0  19.75 1.25 0  20 1.25 0  20.25 1.25 0  20.5 1.25 0  20.75 1.25 0  21 1.25 0  21.25 1.25 0  21.5 1.25 0  21.75 1.25 0  22 1.25 0  22.25 1.25 0  22.5 1.25 0  22.75 1.25 0  23 1.25 0  23.25 1.25 0  23.5 1.25 0  23.75 1.25 0  24 1.25 0  24.25 1.25 0  24.5 1.25 0  24.75 1.25 0  25 1.25 0  0 1.5 0  0.25 1.5 0  0.5 1.5 0  0.75 1.5 0  1 1.5 0  1.25 1.5 0  1.5 1.5 0  1.75 1.5 0  2 1.5 0  2.25 1.5 0  2.5 1.5 0  2.75 1.5 0  3 1.5 0  3.25 1.5 0  3.5 1.5 0  3.75 1.5 0  4 1.5 0  4.25 1.5 0  4.5 1.5 0  4.75 1.5 0  5 1.5 0  5.25 1.5 0  5.5 1.5 0  5.75 1.5 0  6 1.5 0  6.25 1.5 0  6.5 1.5 0  6.75 1.5 0  7 1.5 0  7.25 1.5 0  7.5 1.5 0  7.75 1.5 0  8 1.5 0  8.25 1.5 0  8.5 1.5 0  8.75 1.5 0  9 1.5 0  9.25 1.5 0  9.5 1.5 0  9.75 1.5 0  10 1.5 0  10.25 1.5 0  10.5 1.5 0  10.75 1.5 0  11 1.5 0  11.25 1.5 0  11.5 1.5 0  11.75 1.5 0  12 1.5 0  12.25 1.5 0  12.5 1.5 0  12.75 1.5 0  13 1.5 0  13.25 1.5 0  13.5 1.5 0  13.75 1.5 0  14 1.5 0  14.25 1.5 0  14.5 1.5 0  14.75 1.5 0  15 1.5 0  15.25 1.5 0  15.5 1.5 0  15.75 1.5 0  16 1.5 0  16.25 1.5 0  16.5 1.5 0  16.75 1.5 0  17 1.5 0  17.25 1.5 0  17.5 1.5 0  17.75 1.5 0  18 1.5 0  18.25 1.5 0  18.5 1.5 0  18.75 1.5 0  19 1.5 0  19.25 1.5 0  19.5 1.5 0  19.75 1.5 0  20 1.5 0  20.25 1.5 0  20.5 1.5 0  20.75 1.5 0  21 1.5 0  21.25 1.5 0  21.5 1.5 0  21.75 1.5 0  22 1.5 0  22.25 1.5 0  22.5 1.5 0  22.75 1.5 0  23 1.5 0  23.25 1.5 0  23.5 1.5 0  23.75 1.5 0  24 1.5 0  24.25 1.5 0  24.5 1.5 0  24.75 1.5 0  25 1.5 0  0 1.75 0  0.25 1.75 0  0.5 1.75 0  0.75 1.75 0  1 1.75 0  1.25 1.75 0  1.5 1.75 0  1.75 1.75 0  2 1.75 0  2.25 1.75 0  2.5 1.75 0  2.75 1.75 0  3 1.75 0  3.25 1.75 0  3.5 1.75 0  3.75 1.75 0  4 1.75 0  4.25 1.75 0  4.5 1.75 0  4.75 1.75 0  5 1.75 0  5.25 1.75 0  5.5 1.75 0  5.75 1.75 0  6 1.75 0  6.25 1.75 0  6.5 1.75 0  6.75 1.75 0  7 1.75 0  7.25 1.75 0  7.5 1.75 0  7.75 1.75 0  8 1.75 0  8.25 1.75 0  8.5 1.75 0  8.75 1.75 0  9 1.75 0  9.25 1.75 0  9.5 1.75 0  9.75 1.75 0  10 1.75 0  10.25 1.75 0  10.5 1.75 0  10.75 1.75 0  11 1.75 0  11.25 1.75 0  11.5 1.75 0  11.75 1.75 0  12 1.75 0  12.25 1.75 0  12.5 1.75 0  12.75 1.75 0  13 1.75 0  13.25 1.75 0  13.5 1.75 0  13.75 1.75 0  14 1.75 0  14.25 1.75 0  14.5 1.75 0  14.75 1.75 0  15 1.75 0  15.25 1.75 0  15.5 1.75 0  15.75 1.75 0  16 1.75 0  16.25 1.75 0  16.5 1.75 0  16.75 1.75 0  17 1.75 0  17.25 1.75 0  17.5 1.75 0  17.75 1.75 0  18 1.75 0  18.25 1.75 0  18.5 1.75 0  18.75 1.75 0  19 1.75 0  19.25 1.75 0  19.5 1.75 0  19.75 1.75 0  20 1.75 0  20.25 1.75 0  20.5 1.75 0  20.75 1.75 0  21 1.75 0  21.25 1.75 0  21.5 1.75 0  21.75 1.75 0  22 1.75 0  22.25 1.75 0  22.5 1.75 0  22.75 1.75 0  23 1.75 0  23.25 1.75 0  23.5 1.75 0  23.75 1.75 0  24 1.75 0  24.25 1.75 0  24.5 1.75 0  24.75 1.75 0  25 1.75 0  0 2 0  0.25 2 0  0.5 2 0  0.75 2 0  1 2 0  1.25 2 0  1.5 2 0  1.75 2 0  2 2 0  2.25 2 0  2.5 2 0  2.75 2 0  3 2 0  3.25 2 0  3.5 2 0  3.75 2 0  4 2 0  4.25 2 0  4.5 2 0  4.75 2 0  5 2 0  5.25 2 0  5.5 2 0  5.75 2 0  6 2 0  6.25 2 0  6.5 2 0  6.75 2 0  7 2 0  7.25 2 0  7.5 2 0  7.75 2 0  8 2 0  8.25 2 0  8.5 2 0  8.75 2 0  9 2 0  9.25 2 0  9.5 2 0  9.75 2 0  10 2 0  10.25 2 0  10.5 2 0  10.75 2 0  11 2 0  11.25 2 0 
[...]
<PointData  Scalars="f_26"> 
<DataArray  type="Float64"  Name="f_26"  format="ascii">2.3744549692297063e-05  2.3742953345110199e-05  2.3739411815204954e-05  2.3733730976155322e-05  2.3725837461909750e-05  2.3715692024755539e-05  2.3703274480827085e-05  2.3688586411652656e-05  2.3671658846685394e-05  2.3652561159586389e-05  2.3631409541070762e-05  2.3608373990729094e-05  2.3583682999761577e-05  2.3557625270177907e-05  2.3530548011357176e-05  2.3502851588894667e-05  2.3474980567339734e-05  2.3447411469243143e-05  2.3420637841684749e-05  2.3395153448239353e-05  2.3371434559521499e-05  2.3349922373837478e-05  2.3331006545905921e-05  2.3315010639189155e-05  2.3302180076388119e-05  2.3292672902727561e-05  2.3286553472650042e-05  2.3283789080501892e-05  2.3284249585875299e-05  2.3287710176225416e-05  2.3293857466631121e-05  2.3302299076798366e-05  2.3312576625397163e-05  2.3324181785355431e-05  2.3336574731960457e-05  2.3349204064981902e-05  2.3361527140826980e-05  2.3373029719890941e-05  2.3383243903754679e-05  2.3391763484058652e-05  2.3398256026763286e-05  2.3402471250935065e-05  2.3404245510404827e-05  2.3403502431011976e-05  2.3400249978910726e-05  2.3394574422710678e-05  2.3386631793798636e-05  2.3376637538557734e-05  2.3364855090560383e-05  2.3351584071058507e-05  2.3337148757085914e-05  2.3321887347334912e-05  2.3306142419861993e-05  2.3290252828745880e-05  2.3274547145791674e-05  2.3259338632267025e-05  2.3244921632349244e-05  2.3231569213937634e-05  2.3219531835181491e-05  2.3209036773795642e-05  2.3200288011273279e-05  2.3193466216847283e-05  2.3188728444103894e-05  2.3186207168135024e-05  2.3186008386871026e-05  2.3188208703973465e-05  2.3192851585040861e-05  2.3199943275840100e-05  2.3209449105320286e-05  2.3221290985115649e-05  2.3235346817550922e-05  2.3251452252497989e-05  2.3269404862135134e-05  2.3288970430899638e-05  2.3309890773953273e-05  2.3331892350797327e-05  2.3354694934859482e-05  2.3378019704119733e-05  2.3401596286659428e-05  2.3425168485275814e-05  2.3448498585088088e-05  2.3471370297847757e-05  2.3493590506484656e-05  2.3514990039549087e-05  2.3535423728217458e-05  2.3554769982649995e-05  2.3572930077502201e-05  2.3589827269159111e-05  2.3605405792612144e-05  2.3619629716959877e-05  2.3632481586845364e-05  2.3643960751046079e-05  2.3654081282728260e-05  2.3662869427253646e-05  2.3670360566204049e-05  2.3676595747730764e-05  2.3681617880167826e-05  2.3685467662027747e-05  2.3688179034960655e-05  2.3689772580975086e-05  2.3690239013331406e-05  2.3742197418935980e-05  2.3740964271050841e-05  2.3737519918442473e-05  2.3731878117323952e-05  2.3724012773341180e-05  2.3713897023796773e-05  2.3701514861919272e-05  2.3686869865669875e-05  2.3669994341470893e-05  2.3650958587500717e-05  2.3629879444393933e-05  2.3606927282535879e-05  2.3582330659444743e-05  2.3556378015159820e-05  2.3529415956456292e-05  2.3501843909510518e-05  2.3474105184185613e-05  2.3446674771656386e-05  2.3420044464292399e-05  2.3394706112600492e-05  2.3371133988643318e-05  2.3349767283128065e-05  2.3330993709112895e-05  2.3315135022563093e-05  2.3302435029660161e-05  2.3293050392623297e-05  2.3287044344224066e-05  2.3284383333308536e-05  2.3284936654791786e-05  2.3288479209226020e-05  2.3294697593009536e-05  2.3303199659141847e-05  2.3313527487704573e-05  2.3325173409055495e-05  2.3337598412017750e-05  2.3350252020065348e-05  2.3362592574436400e-05  2.3374106832842154e-05  2.3384327861880547e-05  2.3392850347875250e-05  2.3399342651875980e-05  2.3403555169033615e-05  2.3405324800881669e-05  2.3404575592661301e-05  2.3401315809966867e-05  2.3395631915801985e-05  2.3387680050380081e-05  2.3377675705225557e-05  2.3365882317557182e-05  2.3352599491463266e-05  2.3338151483826082e-05  2.3322876484342703e-05  2.3307117083390799e-05  2.3291212174914334e-05  2.3275490400611460e-05  2.3260265120525401e-05  2.3245830801651279e-05  2.3232460650034485e-05  2.3220405264681264e-05  2.3209892050865197e-05  2.3201125086371044e-05  2.3194285088043232e-05  2.3189529094914665e-05  2.3186989499337134e-05  2.3186772152419015e-05  2.3188953461891378e-05  2.3193576672348325e-05  2.3200647812386164e-05  2.3210132025873554e-05  2.3221951093799515e-05  2.3235982855253873e-05  2.3252062967077316e-05  2.3269989072929773e-05  2.3289527082328402e-05  2.3310418976548200e-05  2.3332391410875553e-05  2.3355164375643504e-05  2.3378459281447108e-05  2.3402006001769476e-05  2.3425548595928965e-05  2.3448849614859599e-05  2.3471693042176229e-05  2.3493886033199833e-05  2.3515259681306106e-05  2.3535669064566134e-05  2.3554992810303138e-05  2.3573132368592676e-05  2.3590011118706083e-05  2.3605573357856237e-05  2.3619783152493449e-05  2.3632622980416325e-05  2.3644092065482570e-05  2.3654204309683471e-05  2.3662985758773950e-05  2.3670471591709502e-05  2.3676702691095986e-05  2.3681721920419433e-05  2.3685570300362793e-05  2.3688283393309532e-05  2.3689888749267726e-05  2.3690408437636772e-05  2.3736423755859369e-05  2.3735289860491155e-05  2.3731929074544441e-05  2.3726356454305193e-05  2.3718561323036689e-05  2.3708526860434536e-05  2.3696243268303662e-05  2.3681718491244862e-05  2.3664988283119951e-05  2.3646125775144088e-05  2.3625250054708654e-05  2.3602533068932504e-05  2.3578204163594715e-05  2.3552551665321041e-05  2.3525921081607093e-05  2.3498709713560820e-05  2.3471357733718675e-05  2.3444336054408697e-05  2.3418131574166576e-05  2.3393230610727730e-05  2.3370101479188217e-05  2.3349177227501087e-05  2.3330839483759168e-05  2.3315404205338138e-05  2.3303109881294659e-05  2.3294108487180899e-05  2.3288459299198163e-05  2.3286125596496392e-05  2.3286974317734105e-05  2.3290778829581779e-05  2.3297225015088326e-05  2.3305920820796418e-05  2.3316409195011735e-05  2.3328184052325787e-05  2.3340708592103159e-05  2.3353435054976116e-05  2.3365824862778048e-05  2.3377368060802912e-05  2.3387601052237835e-05  2.3396121760853723e-05  2.3402601557363154e-05  2.3406793516873879e-05  2.3408536820376332e-05  2.3407757353959953e-05  2.3404464778941918e-05  2.3398746530643291e-05  2.3390759343066041e-05  2.3380718984850477e-05  2.3368888925880754e-05  2.3355568634613096e-05  2.3341082138330397e-05  2.3325767370922811e-05  2.3309966698313971e-05  2.3294018866104945e-05  2.3278252473907279e-05  2.3262980960190395e-05  2.3248498988386169e-05  2.3235080059394315e-05  2.3222975129465018e-05  2.3212411973369424e-05  2.3203594991067128e-05  2.3196705112532597e-05  2.3191899426472322e-05  2.3189310174560489e-05  2.3189042846247110e-05  2.3191173297094230e-05  2.3195744079644644e-05  2.3202760464185637e-05  2.3212186854644595e-05  2.3223944392170349e-05  2.3237910442683712e-05  2.3253920400135660e-05  2.3271771874115417e-05  2.3291230965305591e-05  2.3312040051716622e-05  2.3333926361993765e-05  2.3356610603948281e-05  2.3379815017426382e-05  2.3403270386404099e-05  2.3426721733329360e-05  2.3449932597491757e-05  2.3472687948935548e-05  2.3494795899904497e-05  2.3516088443001369e-05  2.3536421469456296e-05  2.3555674306144671e-05  2.3573748963895971e-05  2.3590569222952441e-05  2.3606079606946693e-05  2.3620244227592750e-05  2.3633045430037172e-05  2.3644482141942459e-05  2.3654567832005572e-05  2.3663328015137632e-05  2.3670797297033888e-05  2.3677016022722165e-05  2.3682026675183436e-05  2.3685870263803140e-05  2.3688583078248364e-05  2.3690194438321511e-05  2.3690726388187737e-05  2.3727117537324917e-05  2.3726024698072221e-05  2.3722732873072695e-05  2.3717245262135860e-05  2.3709553844432782e-05  2.3699647665135188e-05  2.3687522898003876e-05  2.3673193016795291e-05  2.3656698793883142e-05  2.3638117778990909e-05  2.3617572706066288e-05  2.3595238173969588e-05  2.3571344952184006e-05  2.3546181354121527e-05  2.3520091280576808e-05  2.3493468749742713e-05  2.3466748980830121e-05  2.3440396363878435e-05  2.3414889902244616e-05  2.3390706926952155e-05  2.3368306023941740e-05  2.3348110161124320e-05  2.3330490938152492e-05  2.3315754714564349e-05  2.3304131136287497e-05  2.3295764338639784e-05  2.3290706927865925e-05  2.3288916781708306e-05  2.3290256756937111e-05  2.3294497482630416e-05  2.3301323457916734e-05  2.3310342590140263e-05  2.3321099093111638e-05  2.3333089366071836e-05  2.3345780172443631e-05  2.3358628203459073e-05  2.3371099982524064e-05  2.3382691046102009e-05  2.3392943410681423e-05  2.3401460481314777e-05  2.3407918754004053e-05  2.3412075892321062e-05  2.3413774999548370e-05  2.3412945143586186e-05  2.3409598406811661e-05  2.3403823913688457e-05  2.3395779425380027e-05  2.3385681176718344e-05  2.3373792663918893e-05  2.3360413072195925e-05  2.3345865965447361e-05  2.3330488754032396e-05  2.3314623323908172e-05  2.3298608066534929e-05  2.3282771410299609e-05  2.3267426834694724e-05  2.3252869256381356e-05  2.3239372611828005e-05  2.3227188416837968e-05  2.3216545046961140e-05  2.3207647444783008e-05  2.3200676920639596e-05  2.3195790687785076e-05  2.3193120790233748e-05  2.3192772172873722e-05  2.3194819825487769e-05  2.3199305189460671e-05  2.3206232294409207e-05  2.3215564311718828e-05  2.3227221295430653e-05  2.3241079786227162e-05  2.3256974696014440e-05  2.3274703536220093e-05  2.3294032696061347e-05  2.3314705202082131e-05  2.3336449245693192e-05  2.3358986756356667e-05  2.3382041396347925e-05  2.3405345515787351e-05  2.3428645792352310e-05  2.3451707457394560e-05  2.3474317159387175e-05  2.3496284626203323e-05  2.3517443355389763e-05  2.3537650586430118e-05  2.3556786794885445e-05  2.3574754902787442e-05  2.3591479333433248e-05  2.3606904964498565e-05  2.3620995964212081e-05  2.3633734442804129e-05  2.3645118824028235e-05  2.3655161843490886e-05  2.3663888111394898e-05  2.3671331232437346e-05  2.3677530547344271e-05  2.3682527640242016e-05  2.3686362836095665e-05  2.3689071983031430e-05  2.3690683834098744e-05  2.3691218114160350e-05  2.3714335511358202e-05  2.3713271568311731e-05  2.3710047044591711e-05  2.3704659471500705e-05  2.3697101766750517e-05  2.3687367416495200e-05  2.3675458474702206e-05  2.3661394729460594e-05  2.3645223160502794e-05  2.3627027015342392e-05  2.3606933837360525e-05  2.3585121772426810e-05  2.3561823521839430e-05  2.3537327411838403e-05  2.3511975211151429e-05  2.3486156538292628e-05  2.3460299944226092e-05  2.3434861012533697e-05  2.3410308062592459e-05  2.3387106242585152e-05  2.3365700929392494e-05  2.3346501387176396e-05  2.3329865563603180e-05  2.3316086731713291e-05  2.3305382454758203e-05  2.3297886124734076e-05  2.3293641171905749e-05  2.3292598003330861e-05  2.3294613788317224e-05  2.3299455297061701e-05  2.3306805023548884e-05  2.3316270722324361e-05  2.3327398259900978e-05  2.3339687381232413e-05  2.3352609698876926e-05  2.3365627992002591e-05  2.3378215785920046e-05  2.3389876171420399e-05  2.3400158900734889e-05  2.3408674942427702e-05  2.3415107870921609e-05  2.3419221689197931e-05  2.3420864917835004e-05  2.3419971012930778e-05  2.3416555384115902e-05  2.3410709458996943e-05  2.3402592372525182e-05  2.3392420942985725e-05  2.3380458627901474e-05  2.3367004133838273e-05  2.3352380288185110e-05  2.3336923676723288e-05  2.3320975420350699e-05  2.3304873322814970e-05  2.3288945484736169e-05  2.3273505361414105e-05  2.3258848151337066e-05  2.3245248339619849e-05  2.3232958178733460e-05  2.3222206856281309e-05  2.3213200066479557e-05  2.3206119667973492e-05  2.3201123089620914e-05  2.3198342164848796e-05  2.3197881163958031e-05  2.3199813968132560e-05  2.3204180574293762e-05  2.3210983385166066e-05  2.3220183947600216e-05  2.3231700880098277e-05  2.3245409637387818e-05  2.3261144509606646e-05  2.3278702910693711e-05  2.3297851664828319e-05  2.3318334732596031e-05  2.3339881677202317e-05  2.3362216161134393e-05  2.3385063858746982e-05  2.3408159329197077e-05  2.3431251576727766e-05  2.3454108200661436e-05  2.3476518185837623e-05  2.3498293494785005e-05  2.3519269691004818e-05  2.3539305848204923e-05  2.3558283986903967e-05  2.3576108234966683e-05  2.3592703842941016e-05  2.3608016111160323e-05  2.3622009216420370e-05  2.3634664873154499e-05  2.3645980735854624e-05  2.3655968450272866e-05  2.3664651290300698e-05  2.3672061370593862e-05  2.3678236493716899e-05  2.3683216764102815e-05  2.3687041166502572e-05  2.3689744345438523e-05  2.3691353800237019e-05  2.3691887567060830e-05  2.3698211337690697e-05  2.3697175389125254e-05  2.3694023747206293e-05  2.3688752779766766e-05  2.3681357427423470e-05  2.3671835829396202e-05  2.3660196314990049e-05  2.3646465727316471e-05  2.3630698216988420e-05  2.3612983746731130e-05  2.3593455587696484e-05  2.3572296123009015e-05  2.3549740341105154e-05  2.3526076516363576e-05  2.3501643739363353e-05  2.3476826166970411e-05  2.3452044099485272e-05  2.3427742238404966e-05  2.3404375709126646e-05  2.3382394620095916e-05  2.3362228045245632e-05  2.3344268337038427e-05  2.3328856593472770e-05  2.3316269927690881e-05  2.3306710965898970e-05  2.3300299793252032e-05  2.3297068442542650e-05  2.3296958007612420e-05  2.3299818536236775e-05  2.3305411939797884e-05  2.3313418161963564e-05  2.3323444724561617e-05  2.3335039526263941e-05  2.3347706469709134e-05  2.3360923211897697e-05  2.3374160129226627e-05  2.3386899487536042e-05  2.3398653806371850e-05  2.3408982488475450e-05  2.3417505930280085e-05  2.3423916518309206e-05  2.3427986132682041e-05  2.3429570005782638e-05  2.3428607005365531e-05  2.3425116612215164e-05  2.3419193030768189e-05  2.3410996997864859e-05  2.3400745934314909e-05  2.3388703113678344e-05  2.3375166503160264e-05  2.3360457866844262e-05  2.3344912619512041e-05  2.3328870791714483e-05  2.3312669328225626e-05  2.3296635808162841e-05  2.3281083559591297e-05  2.3266308052924736e-05  2.3252584397033539e-05  2.3240165723243841e-05  2.3229282214309424e-05  2.3220140508237723e-05  2.3212923179327353e-05  2.3207787983215255e-05  2.3204866573879989e-05  2.3204262486219111e-05  2.3206048342998171e-05  2.3210262476144636e-05  2.3216905401513453e-05  2.3225936781379751e-05  2.3237273579835680e-05  2.3250790024820170e-05  2.3266319749607661e-05  2.3283660157276680e-05  2.3302578719377065e-05  2.3322820662442446e-05  2.3344117358792476e-05  2.3366194727458499e-05  2.3388781042527424e-05  2.3411613700733691e-05  2.3434444679000378e-05  2.3457044585634917e-05  2.3479205356201489e-05  2.3500741755510176e-05  2.3521491915636521e-05  2.3541317165975616e-05  2.3560101398626964e-05  2.3577750168244128e-05  2.3594189660376398e-05  2.3609365588777432e-05  2.3623242013003893e-05  2.3635800014281194e-05  2.3647036138447163e-05  2.3656960514028129e-05  2.3665594580760459e-05  2.3672968414311347e-05  2.3679117698024959e-05  2.3684080460926376e-05  2.3687893759647938e-05  2.3690590515268860e-05  2.3692196708506952e-05  2.3692729083356492e-05  2.3678933707007923e-05  2.3677927843272344e-05  2.3674857700323454e-05  2.3669720796148649e-05  2.3662515367706706e-05  2.3653244922272095e-05  2.3641924683647285e-05  2.3628589249599358e-05  2.3613300717018699e-05  2.3596156535913435e-05  2.3577296375143199e-05  2.3556907326641052e-05  2.3535226854279676e-05  2.3512543016704980e-05  2.3489191660946674e-05  2.3465550488758022e-05  2.3442030127219547e-05  2.3419062570085561e-05  2.3397087572660555e-05  2.3376537753422190e-05  2.3357823252977636e-05  2.3341316804215046e-05  2.3327339970878847e-05  2.3316151134164399e-05  2.3307935595465195e-05  2.3302797983394069e-05  2.3300757062020889e-05  2.3301743052816901e-05  2.3305597666775555e-05  2.3312077115538212e-05  2.3320858350737293e-05  2.3331548631749234e-05  2.3343698266302174e-05  2.3356816071496059e-05  2.3370386837518861e-05  2.3383889892894179e-05  2.3396817786533699e-05  2.3408694111844587e-05  2.3419089584310006e-05  2.3427635627530408e-05  2.3434034906690334e-05  2.3438068457051485e-05  2.3439599272840977e-05  2.3438572433586746e-05  2.3435012036666031e-05  2.3429015365123181e-05  2.3420744840237257e-05  2.3410418383490882e-05  2.3398298840036960e-05  2.3384683095956815e-05  2.3369891458310527e-05  2.3354257767644971e-05  2.3338120588422578e-05  2.3321815687884010e-05  2.3305669883358804e-05  2.3289996225480917e-05  2.3275090398860133e-05  2.3261228164135270e-05  2.3248663630256347e-05  2.3237628122850961e-05  2.3228329393960918e-05  2.3220950898217569e-05  2.3215650851095275e-05  2.3212560808492083e-05  2.3211783589059326e-05  2.3213390515441385e-05  2.3217418165596630e-05  2.3223865056191160e-05  2.3232688859667513e-05  2.3243804819427483e-05  2.3257085937815106e-05  2.3272365281172731e-05  2.3289440432337529e-05  2.3308079803897676e-05  2.3328030278942698e-05  2.3349025513757502e-05  2.3370794225769954e-05  2.3393067877669283e-05  2.3415587318329782e-05  2.3438108115952231e-05  2.3460404489194976e-05  2.3482271888146969e-05  2.3503528387182158e-05  2.3524015120552458e-05  2.3543596018283903e-05  2.3562157087953182e-05  2.3579605444474688e-05  2.3595868225522405e-05  2.3610891457010199e-05  2.3624638863856012e-05  2.3637090567332169e-05  2.3648241579943300e-05  2.3658100006180121e-05  2.3666684882313483e-05  2.3674023635865415e-05  2.3680149207104707e-05  2.3685096939908020e-05  2.3688901405472103e-05  2.3691593358108653e-05  2.3693197029995894e-05  2.3693727954817250e-05  2.3656740322367119e-05  2.3655767375149864e-05  2.3652788229200714e-05  2.3647802697988931e-05  2.3640813242809961e-05  2.3631829428042559e-05  2.3620873957405212e-05  2.3607989751912084e-05  2.3593247417651070e-05  2.3576752411063412e-05  2.3558651213718716e-05  2.3539135871774619e-05  2.3518446339720528e-05  2.3496870195515506e-05  2.3474739462561620e-05  2.3452424475425155e-05  2.3430324947514860e-05  2.3408858621323262e-05  2.3388448081877846e-05  2.3369506465216611e-05  2.3352422870193847e-05  2.3337548265588877e-05  2.3325182574511080e-05  2.3315563439615781e-05  2.3308856977273891e-05  2.3305150680305487e-05  2.3304448574927836e-05  2.3306668781358425e-05  2.3311643718727588e-05  2.3319123251741493e-05  2.3328781028460867e-05  2.3340224083770382e-05  2.3353005516397036e-05  2.3366639757220845e-05  2.3380619700375826e-05  2.3394434807621623e-05  2.3407589231527206e-05  2.3419619024407773e-05  2.3430107590204244e-05  2.3438698678251923e-05  2.3445106395882369e-05  2.3449121916754868e-05  2.3450616769384965e-05  2.3449542791350459e-05  2.3445929016165442e-05  2.3439875911164055e-05  2.3431547498073797e-05  2.3421161958241965e-05  2.3408981349338939e-05  2.3395301040165847e-05  2.3380439408405725e-05  2.3364728249775054e-05  2.3348504226675018e-05  2.3332101553638575e-05  2.3315845990318705e-05  2.3300050103688675e-05  2.3285009678327158e-05  2.3271001099247024e-05  2.3258279500687927e-05  2.3247077456816222e-05  2.3237603976800079e-05  2.3230043554320038e-05  2.3224555018713670e-05  2.3221269961196870e-05  2.3220290587975331e-05  2.3221686995458304e-05  2.3225494060209447e-05  2.3231708347113982e-05  2.3240285601906190e-05  2.3251139448148739e-05  2.3264141820718814e-05  2.3279125448704581e-05  2.3295888403324017e-05  2.3314200425950824e-05  2.3333810516735486e-05  2.3354455137525738e-05  2.3375866371308410e-05  2.3397779464059120e-05  2.3419939319569081e-05  2.3442105688272472e-05  2.3464056958627072e-05  2.3485592604318904e-05  2.3506534450442989e-05  2.3526726990934024e-05  2.3546037016829033e-05  2.3564352803673174e-05  2.3581583063648053e-05  2.3597655804087726e-05  2.3612517161164967e-05  2.3626130208211713e-05  2.3638473683509951e-05  2.3649540550649879e-05  2.3659336299899019e-05  2.3667876921191046e-05  2.3675186523772447e-05  2.3681294636163465e-05  2.3686233282538387e-05  2.3690033986865045e-05  2.3692724894420687e-05  2.3694328215731568e-05  2.3694858191528824e-05  2.3631915344388849e-05  2.3630978133618805e-05  2.3628099247587773e-05  2.3623281362593625e-05  2.3616531731968432e-05  2.3607866457204829e-05  2.3597316128407036e-05  2.3584932349151124e-05  2.3570794550760770e-05  2.3555016448942554e-05  2.3537751493096035e-05  2.3519196701391384e-05  2.3499594361794177e-05  2.3479231208975918e-05  2.3458434854843315e-05  2.3437567447309877e-05  2.3417016744112525e-05  2.3397184997168954e-05  2.3378476224948719e-05  2.3361282579779501e-05  2.3345970570010938e-05  2.3332867859347493e