<?xml version="1.0"?>
<VTKFile type="UnstructuredGrid"  version="0.1"  >
<UnstructuredGrid>
<Piece  NumberOfPoints="10201" NumberOfCells="20000">
<Points>
<DataArray  type="Float64"  NumberOfComponents="3"  format="ascii">0 0 0  0.25 0 0  0.5 0 0  0.75 0 0  1 0 0  1.25 0 0  1.5 0 0  1.75 0 0  2 0 0  2.25 0 0  2.5 0 0  2.75 0 0  3 0 0  3.25 0 0  3.5 0 0  3.75 0 0  4 0 0  4.25 0 0  4.5 0 0  4.75 0 0  5 0 0  5.25 0 0  5.5 0 0  5.75 0 0  6 0 0  6.25 0 0  6.5 0 0  6.75 0 0  7 0 0  7.25 0 0  7.5 0 0  7.75 0 0  8 0 0  8.25 0 0  8.5 0 0  8.75 0 0  9 0 0  9.25 0 0  9.5 0 0  9.75 0 0  10 0 0  10.25 0 0  10.5 0 0  10.75 0 0  11 0 0  11.25 0 0  11.5 0 0  11.75 0 0  12 0 0  12.25 0 0  12.5 0 0  12.75 0 0  13 0 0  13.25 0 0  13.5 0 0  13.75 0 0  14 0 0  14.25 0 0  14.5 0 0  14.75 0 0  15 0 0  15.25 0 0  15.5 0 0  15.75 0 0  16 0 0  16.25 0 0  16.5 0 0  16.75 0 0  17 0 0  17.25 0 0  17.5 0 0  17.75 0 0  18 0 0  18.25 0 0  18.5 0 0  18.75 0 0  19 0 0  19.25 0 0  19.5 0 0  19.75 0 0  20 0 0  20.25 0 0  20.5 0 0  20.75 0 0  21 0 0  21.25 0 0  21.5 0 0  21.75 0 0  22 0 0  22.25 0 0  22.5 0 0  22.75 0 0  23 0 0  23.25 0 0  23.5 0 0  23.75 0 0  24 0 0  24.25 0 0  24.5 0 0  24.75 0 0  25 0 0  0 0.25 0  0.25 0.25 0  0.5 0.25 0  0.75 0.25 0  1 0.25 0  1.25 0.25 0  1.5 0.25 0  1.75 0.25 0  2 0.25 0  2.25 0.25 0  2.5 0.25 0  2.75 0.25 0  3 0.25 0  3.25 0.25 0  3.5 0.25 0  3.75 0.25 0  4 0.25 0  4.25 0.25 0  4.5 0.25 0  4.75 0.25 0  5 0.25 0  5.25 0.25 0  5.5 0.25 0  5.75 0.25 0  6 0.25 0  6.25 0.25 0  6.5 0.25 0  6.75 0.25 0  7 0.25 0  7.25 0.25 0  7.5 0.25 0  7.75 0.25 0  8 0.25 0  8.25 0.25 0  8.5 0.25 0  8.75 0.25 0  9 0.25 0  9.25 0.25 0  9.5 0.25 0  9.75 0.25 0  10 0.25 0  10.25 0.25 0  10.5 0.25 0  10.75 0.25 0  11 0.25 0  11.25 0.25 0  11.5 0.25 0  11.75 0.25 0  12 0.25 0  12.25 0.25 0  12.5 0.25 0  12.75 0.25 0  13 0.25 0  13.25 0.25 0  13.5 0.25 0  13.75 0.25 0  14 0.25 0  14.25 0.25 0  14.5 0.25 0  14.75 0.25 0  15 0.25 0  15.25 0.25 0  15.5 0.25 0  15.75 0.25 0  16 0.25 0  16.25 0.25 0  16.5 0.25 0  16.75 0.25 0  17 0.25 0  17.25 0.25 0  17.5 0.25 0  17.75 0.25 0  18 0.25 0  18.25 0.25 0  18.5 0.25 0  18.75 0.25 0  19 0.25 0  19.25 0.25 0  19.5 0.25 0  19.75 0.25 0  20 0.25 0  20.25 0.25 0  20.5 0.25 0  20.75 0.25 0  21 0.25 0  21.25 0.25 0  21.5 0.25 0  21.75 0.25 0  22 0.25 0  22.25 0.25 0  22.5 0.25 0  22.75 0.25 0  23 0.25 0  23.25 0.25 0  23.5 0.25 0  23.75 0.25 0  24 0.25 0  24.25 0.25 0  24.5 0.25 0  24.75 0.25 0  25 0.25 0  0 0.5 0  0.25 0.5 0  0.5 0.5 0  0.75 0.5 0  1 0.5 0  1.25 0.5 0  1.5 0.5 0  1.75 0.5 0  2 0.5 0  2.25 0.5 0  2.5 0.5 0  2.75 0.5 0  3 0.5 0  3.25 0.5 0  3.5 0.5 0  3.75 0.5 0  4 0.5 0  4.25 0.5 0  4.5 0.5 0  4.75 0.5 0  5 0.5 0  5.25 0.5 0  5.5 0.5 0  5.75 0.5 0  6 0.5 0  6.25 0.5 0  6.5 0.5 0  6.75 0.5 0  7 0.5 0  7.25 0.5 0  7.5 0.5 0  7.75 0.5 0  8 0.5 0  8.25 0.5 0  8.5 0.5 0  8.75 0.5 0  9 0.5 0  9.25 0.5 0  9.5 0.5 0  9.75 0.5 0  10 0.5 0  10.25 0.5 0  10.5 0.5 0  10.75 0.5 0  11 0.5 0  11.25 0.5 0  11.5 0.5 0  11.75 0.5 0  12 0.5 0  12.25 0.5 0  12.5 0.5 0  12.75 0.5 0  13 0.5 0  13.25 0.5 0  13.5 0.5 0  13.75 0.5 0  14 0.5 0  14.25 0.5 0  14.5 0.5 0  14.75 0.5 0  15 0.5 0  15.25 0.5 0  15.5 0.5 0  15.75 0.5 0  16 0.5 0  16.25 0.5 0  16.5 0.5 0  16.75 0.5 0  17 0.5 0  17.25 0.5 0  17.5 0.5 0  17.75 0.5 0  18 0.5 0  18.25 0.5 0  18.5 0.5 0  18.75 0.5 0  19 0.5 0  19.25 0.5 0  19.5 0.5 0  19.75 0.5 0  20 0.5 0  20.25 0.5 0  20.5 0.5 0  20.75 0.5 0  21 0.5 0  21.25 0.5 0  21.5 0.5 0  21.75 0.5 0  22 0.5 0  22.25 0.5 0  22.5 0.5 0  22.75 0.5 0  23 0.5 0  23.25 0.5 0  23.5 0.5 0  23.75 0.5 0  24 0.5 0  24.25 0.5 0  24.5 0.5 0  24.75 0.5 0  25 0.5 0  0 0.75 0  0.25 0.75 0  0.5 0.75 0  0.75 0.75 0  1 0.75 0  1.25 0.75 0  1.5 0.75 0  1.75 0.75 0  2 0.75 0  2.25 0.75 0  2.5 0.75 0  2.75 0.75 0  3 0.75 0  3.25 0.75 0  3.5 0.75 0  3.75 0.75 0  4 0.75 0  4.25 0.75 0  4.5 0.75 0  4.75 0.75 0  5 0.75 0  5.25 0.75 0  5.5 0.75 0  5.75 0.75 0  6 0.75 0  6.25 0.75 0  6.5 0.75 0  6.75 0.75 0  7 0.75 0  7.25 0.75 0  7.5 0.75 0  7.75 0.75 0  8 0.75 0  8.25 0.75 0  8.5 0.75 0  8.75 0.75 0  9 0.75 0  9.25 0.75 0  9.5 0.75 0  9.75 0.75 0  10 0.75 0  10.25 0.75 0  10.5 0.75 0  10.75 0.75 0  11 0.75 0  11.25 0.75 0  11.5 0.75 0  11.75 0.75 0  12 0.75 0  12.25 0.75 0  12.5 0.75 0  12.75 0.75 0  13 0.75 0  13.25 0.75 0  13.5 0.75 0  13.75 0.75 0  14 0.75 0  14.25 0.75 0  14.5 0.75 0  14.75 0.75 0  15 0.75 0  15.25 0.75 0  15.5 0.75 0  15.75 0.75 0  16 0.75 0  16.25 0.75 0  16.5 0.75 0  16.75 0.75 0  17 0.75 0  17.25 0.75 0  17.5 0.75 0  17.75 0.75 0  18 0.75 0  18.25 0.75 0  18.5 0.75 0  18.75 0.75 0  19 0.75 0  19.25 0.75 0  19.5 0.75 0  19.75 0.75 0  20 0.75 0  20.25 0.75 0  20.5 0.75 0  20.75 0.75 0  21 0.75 0  21.25 0.75 0  21.5 0.75 0  21.75 0.75 0  22 0.75 0  22.25 0.75 0  22.5 0.75 0  22.75 0.75 0  23 0.75 0  23.25 0.75 0  23.5 0.75 0  23.75 0.75 0  24 0.75 0  24.25 0.75 0  24.5 0.75 0  24.75 0.75 0  25 0.75 0  0 1 0  0.25 1 0  0.5 1 0  0.75 1 0  1 1 0  1.25 1 0  1.5 1 0  1.75 1 0  2 1 0  2.25 1 0  2.5 1 0  2.75 1 0  3 1 0  3.25 1 0  3.5 1 0  3.75 1 0  4 1 0  4.25 1 0  4.5 1 0  4.75 1 0  5 1 0  5.25 1 0  5.5 1 0  5.75 1 0  6 1 0  6.25 1 0  6.5 1 0  6.75 1 0  7 1 0  7.25 1 0  7.5 1 0  7.75 1 0  8 1 0  8.25 1 0  8.5 1 0  8.75 1 0  9 1 0  9.25 1 0  9.5 1 0  9.75 1 0  10 1 0  10.25 1 0  10.5 1 0  10.75 1 0  11 1 0  11.25 1 0  11.5 1 0  11.75 1 0  12 1 0  12.25 1 0  12.5 1 0  12.75 1 0  13 1 0  13.25 1 0  13.5 1 0  13.75 1 0  14 1 0  14.25 1 0  14.5 1 0  14.75 1 0  15 1 0  15.25 1 0  15.5 1 0  15.75 1 0  16 1 0  16.25 1 0  16.5 1 0  16.75 1 0  17 1 0  17.25 1 0  17.5 1 0  17.75 1 0  18 1 0  18.25 1 0  18.5 1 0  18.75 1 0  19 1 0  19.25 1 0  19.5 1 0  19.75 1 0  20 1 0  20.25 1 0  20.5 1 0  20.75 1 0  21 1 0  21.25 1 0  21.5 1 0  21.75 1 0  22 1 0  22.25 1 0  22.5 1 0  22.75 1 0  23 1 0  23.25 1 0  23.5 1 0  23.75 1 0  24 1 0  24.25 1 0  24.5 1 0  24.75 1 0  25 1 0  0 1.25 0  0.25 1.25 0  0.5 1.25 0  0.75 1.25 0  1 1.25 0  1.25 1.25 0  1.5 1.25 0  1.75 1.25 0  2 1.25 0  2.25 1.25 0  2.5 1.25 0  2.75 1.25 0  3 1.25 0  3.25 1.25 0  3.5 1.25 0  3.75 1.25 0  4 1.25 0  4.25 1.25 0  4.5 1.25 0  4.75 1.25 0  5 1.25 0  5.25 1.25 0  5.5 1.25 0  5.75 1.25 0  6 1.25 0  6.25 1.25 0  6.5 1.25 0  6.75 1.25 0  7 1.25 0  7.25 1.25 0  7.5 1.25 0  7.75 1.25 0  8 1.25 0  8.25 1.25 0  8.5 1.25 0  8.75 1.25 0  9 1.25 0  9.25 1.25 0  9.5 1.25 0  9.75 1.25 0  10 1.25 0  10.25 1.25 0  10.5 1.25 0  10.75 1.25 0  11 1.25 0  11.25 1.25 0  11.5 1.25 0  11.75 1.25 0  12 1.25 0  12.25 1.25 0  12.5 1.25 0  12.75 1.25 0  13 1.25 0  13.25 1.25 0  13.5 1.25 0  13.75 1.25 0  14 1.25 0  14.25 1.25 0  14.5 1.25 0  14.75 1.25 0  15 1.25 0  15.25 1.25 0  15.5 1.25 0  15.75 1.25 0  16 1.25 0  16.25 1.25 0  16.5 1.25 0  16.75 1.25 0  17 1.25 0  17.25 1.25 0  17.5 1.25 0  17.75 1.25 0  18 1.25 0  18.25 1.25 0  18.5 1.25 0  18.75 1.25 0  19 1.25 0  19.25 1.25 0  19.5 1.25 0  19.75 1.25 0  20 1.25 0  20.25 1.25 0  20.5 1.25 0  20.75 1.25 0  21 1.25 0  21.25 1.25 0  21.5 1.25 0  21.75 1.25 0  22 1.25 0  22.25 1.25 0  22.5 1.25 0  22.75 1.25 0  23 1.25 0  23.25 1.25 0  23.5 1.25 0  23.75 1.25 0  24 1.25 0  24.25 1.25 0  24.5 1.25 0  24.75 1.25 0  25 1.25 0  0 1.5 0  0.25 1.5 0  0.5 1.5 0  0.75 1.5 0  1 1.5 0  1.25 1.5 0  1.5 1.5 0  1.75 1.5 0  2 1.5 0  2.25 1.5 0  2.5 1.5 0  2.75 1.5 0  3 1.5 0  3.25 1.5 0  3.5 1.5 0  3.75 1.5 0  4 1.5 0  4.25 1.5 0  4.5 1.5 0  4.75 1.5 0  5 1.5 0  5.25 1.5 0  5.5 1.5 0  5.75 1.5 0  6 1.5 0  6.25 1.5 0  6.5 1.5 0  6.75 1.5 0  7 1.5 0  7.25 1.5 0  7.5 1.5 0  7.75 1.5 0  8 1.5 0  8.25 1.5 0  8.5 1.5 0  8.75 1.5 0  9 1.5 0  9.25 1.5 0  9.5 1.5 0  9.75 1.5 0  10 1.5 0  10.25 1.5 0  10.5 1.5 0  10.75 1.5 0  11 1.5 0  11.25 1.5 0  11.5 1.5 0  11.75 1.5 0  12 1.5 0  12.25 1.5 0  12.5 1.5 0  12.75 1.5 0  13 1.5 0  13.25 1.5 0  13.5 1.5 0  13.75 1.5 0  14 1.5 0  14.25 1.5 0  14.5 1.5 0  14.75 1.5 0  15 1.5 0  15.25 1.5 0  15.5 1.5 0  15.75 1.5 0  16 1.5 0  16.25 1.5 0  16.5 1.5 0  16.75 1.5 0  17 1.5 0  17.25 1.5 0  17.5 1.5 0  17.75 1.5 0  18 1.5 0  18.25 1.5 0  18.5 1.5 0  18.75 1.5 0  19 1.5 0  19.25 1.5 0  19.5 1.5 0  19.75 1.5 0  20 1.5 0  20.25 1.5 0  20.5 1.5 0  20.75 1.5 0  21 1.5 0  21.25 1.5 0  21.5 1.5 0  21.75 1.5 0  22 1.5 0  22.25 1.5 0  22.5 1.5 0  22.75 1.5 0  23 1.5 0  23.25 1.5 0  23.5 1.5 0  23.75 1.5 0  24 1.5 0  24.25 1.5 0  24.5 1.5 0  24.75 1.5 0  25 1.5 0  0 1.75 0  0.25 1.75 0  0.5 1.75 0  0.75 1.75 0  1 1.75 0  1.25 1.75 0  1.5 1.75 0  1.75 1.75 0  2 1.75 0  2.25 1.75 0  2.5 1.75 0  2.75 1.75 0  3 1.75 0  3.25 1.75 0  3.5 1.75 0  3.75 1.75 0  4 1.75 0  4.25 1.75 0  4.5 1.75 0  4.75 1.75 0  5 1.75 0  5.25 1.75 0  5.5 1.75 0  5.75 1.75 0  6 1.75 0  6.25 1.75 0  6.5 1.75 0  6.75 1.75 0  7 1.75 0  7.25 1.75 0  7.5 1.75 0  7.75 1.75 0  8 1.75 0  8.25 1.75 0  8.5 1.75 0  8.75 1.75 0  9 1.75 0  9.25 1.75 0  9.5 1.75 0  9.75 1.75 0  10 1.75 0  10.25 1.75 0  10.5 1.75 0  10.75 1.75 0  11 1.75 0  11.25 1.75 0  11.5 1.75 0  11.75 1.75 0  12 1.75 0  12.25 1.75 0  12.5 1.75 0  12.75 1.75 0  13 1.75 0  13.25 1.75 0  13.5 1.75 0  13.75 1.75 0  14 1.75 0  14.25 1.75 0  14.5 1.75 0  14.75 1.75 0  15 1.75 0  15.25 1.75 0  15.5 1.75 0  15.75 1.75 0  16 1.75 0  16.25 1.75 0  16.5 1.75 0  16.75 1.75 0  17 1.75 0  17.25 1.75 0  17.5 1.75 0  17.75 1.75 0  18 1.75 0  18.25 1.75 0  18.5 1.75 0  18.75 1.75 0  19 1.75 0  19.25 1.75 0  19.5 1.75 0  19.75 1.75 0  20 1.75 0  20.25 1.75 0  20.5 1.75 0  20.75 1.75 0  21 1.75 0  21.25 1.75 0  21.5 1.75 0  21.75 1.75 0  22 1.75 0  22.25 1.75 0  22.5 1.75 0  22.75 1.75 0  23 1.75 0  23.25 1.75 0  23.5 1.75 0  23.75 1.75 0  24 1.75 0  24.25 1.75 0  24.5 1.75 0  24.75 1.75 0  25 1.75 0  0 2 0  0.25 2 0  0.5 2 0  0.75 2 0  1 2 0  1.25 2 0  1.5 2 0  1.75 2 0  2 2 0  2.25 2 0  2.5 2 0  2.75 2 0  3 2 0  3.25 2 0  3.5 2 0  3.75 2 0  4 2 0  4.25 2 0  4.5 2 0  4.75 2 0  5 2 0  5.25 2 0  5.5 2 0  5.75 2 0  6 2 0  6.25 2 0  6.5 2 0  6.75 2 0  7 2 0  7.25 2 0  7.5 2 0  7.75 2 0  8 2 0  8.25 2 0  8.5 2 0  8.75 2 0  9 2 0  9.25 2 0  9.5 2 0  9.75 2 0  10 2 0  10.25 2 0  10.5 2 0  10.75 2 0  11 2 0  11.25 2 0 
[...]
<PointData  Scalars="f_26"> 
<DataArray  type="Float64"  Name="f_26"  format="ascii">2.2371460904177115e-05  2.2377191238128038e-05  2.2391410729754488e-05  2.2414633987672842e-05  2.2447007980255871e-05  2.2488426651405715e-05  2.2538527394552194e-05  2.2596706991601664e-05  2.2662164781488463e-05  2.2733952462232711e-05  2.2811016390922862e-05  2.2892231303933970e-05  2.2976431165694983e-05  2.3062442098047749e-05  2.3149118331390034e-05  2.3235378775048981e-05  2.3320240468749063e-05  2.3402845465534175e-05  2.3482478841406074e-05  2.3558576940122115e-05  2.3630726272133998e-05  2.3698654481341829e-05  2.3762215381809237e-05  2.3821370257412337e-05  2.3876167487866674e-05  2.3926722225016748e-05  2.3973197404831585e-05  2.4015786933527703e-05  2.4054701490766036e-05  2.4090157079500514e-05  2.4122366228122475e-05  2.4151531608345984e-05  2.4177841756536882e-05  2.4201468559555577e-05  2.4222566172614697e-05  2.4241271063011155e-05  2.4257702910051062e-05  2.4271966131242139e-05  2.4284151843517137e-05  2.4294340103316859e-05  2.4302602299503202e-05  2.4309003597830940e-05  2.4313605355174570e-05  2.4316467436350805e-05  2.4317650376937430e-05  2.4317217342914937e-05  2.4315235843360032e-05  2.4311779157016756e-05  2.4306927438602618e-05  2.4300768477332053e-05  2.4293398089297850e-05  2.4284920137620265e-05  2.4275446189730434e-05  2.4265094839273095e-05  2.4253990739727643e-05  2.4242263416195357e-05  2.4230045938680143e-05  2.4217473552194090e-05  2.4204682363858476e-05  2.4191808183024829e-05  2.4178985596287945e-05  2.4166347335143210e-05  2.4154023961192361e-05  2.4142143854654965e-05  2.4130833449956278e-05  2.4120217621524052e-05  2.4110420088154964e-05  2.4101563679794991e-05  2.4093770300109239e-05  2.4087160424553800e-05  2.4081851998155178e-05  2.4077958639516025e-05  2.4075587115518829e-05  2.4074834120757488e-05  2.4075782471170881e-05  2.4078496895644601e-05  2.4083019674708460e-05  2.4089366424136394e-05  2.4097522346432841e-05  2.4107439269929687e-05  2.4119033761329294e-05  2.4132186534189342e-05  2.4146743287829583e-05  2.4162517006550219e-05  2.4179291638496559e-05  2.4196826968806134e-05  2.4214864414262346e-05  2.4233133405946066e-05  2.4251357998295920e-05  2.4269263349257705e-05  2.4286581754077173e-05  2.4303057978076984e-05  2.4318453711756323e-05  2.4332551052894779e-05  2.4345154990565356e-05  2.4356094902806451e-05  2.4365225030160848e-05  2.4372423571557965e-05  2.4377588737692584e-05  2.4380624539898598e-05  2.4381383897791498e-05  2.2375195944555034e-05  2.2380068884520293e-05  2.2394065043756012e-05  2.2417196332373653e-05  2.2449490047879644e-05  2.2490806756369713e-05  2.2540774425266090e-05  2.2598789150338385e-05  2.2664053207477932e-05  2.2735622615741693e-05  2.2812448527216156e-05  2.2893410688272848e-05  2.2977348196593337e-05  2.3063092297870518e-05  2.3149502160274400e-05  2.3235501261777942e-05  2.3320110679934229e-05  2.3402475856136593e-05  2.3481884542274510e-05  2.3557775038605673e-05  2.3629735132434659e-05  2.3697493137113308e-05  2.3760903018907185e-05  2.3819925792279627e-05  2.3874609237869825e-05  2.3925067661177678e-05  2.3971462974332640e-05  2.4013987938435367e-05  2.4052852009962178e-05  2.4088269922267792e-05  2.4120452909759663e-05  2.4149602340257996e-05  2.4175905445220474e-05  2.4199532810638010e-05  2.4220637297522042e-05  2.4239354086926954e-05  2.4255801580600064e-05  2.4270082927853281e-05  2.4282287987757816e-05  2.4292495570725505e-05  2.4300775833652884e-05  2.4307192727594364e-05  2.4311806416472090e-05  2.4314675600066113e-05  2.4315859685172916e-05  2.4315420756296141e-05  2.4313425302627960e-05  2.4309945662588845e-05  2.4305061152045547e-05  2.4298858848674840e-05  2.4291434013731870e-05  2.4282890144313998e-05  2.4273338664194917e-05  2.4262898278959638e-05  2.4251694040385874e-05  2.4239856184088589e-05  2.4227518821217298e-05  2.4214818577102490e-05  2.4201893274915070e-05  2.4188880758801283e-05  2.4175917937528961e-05  2.4163140106409854e-05  2.4150680573312354e-05  2.4138670576299917e-05  2.4127239439208269e-05  2.4116514871439118e-05  2.4106623283880270e-05  2.4097689968535918e-05  2.4089838978966279e-05  2.4083192554771020e-05  2.4077869957487318e-05  2.4073985627105392e-05  2.4071646625779726e-05  2.4070949404220481e-05  2.4071976000983507e-05  2.4074789858414873e-05  2.4079431503583039e-05  2.4085914390417270e-05  2.4094221223674284e-05  2.4104301081380207e-05  2.4116067617899443e-05  2.4129398565998777e-05  2.4144136668032981e-05  2.4160092061823909e-05  2.4177046036573302e-05  2.4194755970060330e-05  2.4212961171824557e-05  2.4231389297353982e-05  2.4249762971375272e-05  2.4267806265792716e-05  2.4285250716840662e-05  2.4301840629941365e-05  2.4317337500157126e-05  2.4331523460064934e-05  2.4344203744114173e-05  2.4355208218677275e-05  2.4364392065212570e-05  2.4371635751603974e-05  2.4376844739328362e-05  2.4379951510477626e-05  2.4380935357010375e-05  2.2383496522548990e-05  2.2388156158670423e-05  2.2401982716681882e-05  2.2424964721247421e-05  2.2457070256435667e-05  2.2498120914694903e-05  2.2547726942552645e-05  2.2605282266091839e-05  2.2669996304846454e-05  2.2740936691730987e-05  2.2817067947392560e-05  2.2897283937941973e-05  2.2980438425992739e-05  2.3065377737159589e-05  2.3150976187241234e-05  2.3236171919642370e-05  2.3319999574489449e-05  2.3401616494331850e-05  2.3480320264528411e-05  2.3555556737620978e-05  2.3626918949548906e-05  2.3694138296107870e-05  2.3757069910563341e-05  2.3815674372944573e-05  2.3869997760669168e-05  2.3920151724242150e-05  2.3966294848055189e-05  2.4008616122459798e-05  2.4047320968078083e-05  2.4082619946940406e-05  2.4114720075104439e-05  2.4143818510810537e-05  2.4170098316378395e-05  2.4193725964248209e-05  2.4214850262302360e-05  2.4233602398132319e-05  2.4250096836684413e-05  2.4264432844086491e-05  2.4276696448138973e-05  2.4286962680404059e-05  2.4295297974712311e-05  2.4301762621698386e-05  2.4306413198680157e-05  2.4309304909172117e-05  2.4310493777205985e-05  2.4310038649261213e-05  2.4308002962000418e-05  2.4304456238295549e-05  2.4299475278406826e-05  2.4293145018776128e-05  2.4285559038682837e-05  2.4276819705632665e-05  2.4267037964007605e-05  2.4256332787840511e-05  2.4244830336624155e-05  2.4232662871274958e-05  2.4219967503737146e-05  2.4206884865979641e-05  2.4193557790093296e-05  2.4180130089004780e-05  2.4166745515849624e-05  2.4153546959126412e-05  2.4140675901356507e-05  2.4128272133231595e-05  2.4116473676318364e-05  2.4105416829258545e-05  2.4095236219411208e-05  2.4086064718349033e-05  2.4078033069342250e-05  2.4071269080771889e-05  2.4065896262764130e-05  2.4062031825006902e-05  2.4059784009614911e-05  2.4059248800085580e-05  2.4060506120157313e-05  2.4063615707730704e-05  2.4068612911192120e-05  2.4075504700791575e-05  2.4084266209458460e-05  2.4094838110823073e-05  2.4107125105294225e-05  2.4120995719288603e-05  2.4136283533197528e-05  2.4152789848786522e-05  2.4170287697247482e-05  2.4188526986926353e-05  2.4207240506129322e-05  2.4226150440456657e-05  2.4244975041364174e-05  2.4263435094329470e-05  2.4281259877969012e-05  2.4298192372923286e-05  2.4313993562166005e-05  2.4328445752895378e-05  2.4341354936390073e-05  2.4352552283947250e-05  2.4361894967336954e-05  2.4369266645994330e-05  2.4374578342322038e-05  2.4377771366881021e-05  2.4378825217752058e-05  2.2397062959539237e-05  2.2401649079584075e-05  2.2415342148634459e-05  2.2438128030617308e-05  2.2469934232052878e-05  2.2510545241685483e-05  2.2559552158316274e-05  2.2616347903133458e-05  2.2680153410506083e-05  2.2750054443739512e-05  2.2825036588794476e-05  2.2904016261408804e-05  2.2985870925758003e-05  2.3069471529829338e-05  2.3153717350096157e-05  2.3237570905985431e-05  2.3320089573959558e-05  2.3400450825644397e-05  2.3477969043032407e-05  2.3552103135222003e-05  2.3622455369417269e-05  2.3688762738400686e-05  2.3750882730288399e-05  2.3808775547512281e-05  2.3862484708166012e-05  2.3912117653348714e-05  2.3957827580303204e-05  2.3999797306245028e-05  2.4038225597977524e-05  2.4073316106875781e-05  2.4105268835335758e-05  2.4134273922993462e-05  2.4160507465344586e-05  2.4184129048115063e-05  2.4205280683149116e-05  2.4224086853561561e-05  2.4240655408295864e-05  2.4255079082637795e-05  2.4267437457479597e-05  2.4277799203684119e-05  2.4286224487379472e-05  2.4292767436802004e-05  2.4297478591282298e-05  2.4300407268364979e-05  2.4301603796360319e-05  2.4301121567551219e-05  2.4299018872713341e-05  2.4295360481583274e-05  2.4290218937543821e-05  2.4283675539193596e-05  2.4275820987613061e-05  2.4266755686757556e-05  2.4256589695838339e-05  2.4245442346634422e-05  2.4233441554685702e-05  2.4220722869968106e-05  2.4207428328188477e-05  2.4193705176213657e-05  2.4179704552277465e-05  2.4165580201669058e-05  2.4151487300351041e-05  2.4137581441991196e-05  2.4124017818863577e-05  2.4110950595739441e-05  2.4098532441042220e-05  2.4086914144808729e-05  2.4076244222501818e-05  2.4066668381648340e-05  2.4058328718419407e-05  2.4051362516535807e-05  2.4045900542865343e-05  2.4042064772715960e-05  2.4039965531178245e-05  2.4039698101071665e-05  2.4041338917478794e-05  2.4044941536518603e-05  2.4050532624173097e-05  2.4058108251980746e-05  2.4067630803633210e-05  2.4079026785388758e-05  2.4092185792100575e-05  2.4106960811418595e-05  2.4123169956894091e-05  2.4140599615099759e-05  2.4159008883577735e-05  2.4178135077412622e-05  2.4197700003635567e-05  2.4217416653159659e-05  2.4236995944423916e-05  2.4256153171861441e-05  2.4274613861879807e-05  2.4292118811979952e-05  2.4308428175695195e-05  2.4323324547839684e-05  2.4336615093797865e-05  2.4348132850569661e-05  2.4357737410984208e-05  2.4365315299320403e-05  2.4370780457956043e-05  2.4374075252702447e-05  2.4375171483825440e-05  2.2416421928095252e-05  2.2420954330046830e-05  2.2434495190852108e-05  2.2457008464611799e-05  2.2488380114899899e-05  2.2528357743923655e-05  2.2576513656343844e-05  2.2632241500057707e-05  2.2694777264125119e-05  2.2763229974866548e-05  2.2836612670823176e-05  2.2913871714939221e-05  2.2993916501707566e-05  2.3075651449992046e-05  2.3158009964649210e-05  2.3239988048826399e-05  2.3320674457364687e-05  2.3399274596004335e-05  2.3475126322462739e-05  2.3547706975835682e-05  2.3616632056945948e-05  2.3681646823070812e-05  2.3742612563951841e-05  2.3799489494127401e-05  2.3852318090959884e-05  2.3901200419423225e-05  2.3946282607306461e-05  2.3987739245204350e-05  2.4025760136985726e-05  2.4060539546020048e-05  2.4092267878093984e-05  2.4121125608298039e-05  2.4147279183959230e-05  2.4170878604541512e-05  2.4192056378753786e-05  2.4210927577613342e-05  2.4227590731339123e-05  2.4242129351642312e-05  2.4254613895232350e-05  2.4265104016672014e-05  2.4273650987652334e-05  2.4280300184572804e-05  2.4285093566722091e-05  2.4288072083401885e-05  2.4289277960315881e-05  2.4288756823971831e-05  2.4286559628429610e-05  2.4282744352355763e-05  2.4277377437019720e-05  2.4270534938640252e-05  2.4262303372359693e-05  2.4252780230910016e-05  2.4242074169261237e-05  2.4230304857317240e-05  2.4217602515663435e-05  2.4204107163573402e-05  2.4189967622575556e-05  2.4175340331146709e-05  2.4160388034670038e-05  2.4145278417911915e-05  2.4130182743567750e-05  2.4115274549198509e-05  2.4100728436305574e-05  2.4086718960562532e-05  2.4073419603544169e-05  2.4061001776760629e-05  2.4049633782136452e-05  2.4039479633234362e-05  2.4030697632257551e-05  2.4023438602202301e-05  2.4017843693303853e-05  2.4014041718342564e-05  2.4012146020784114e-05  2.4012250939464971e-05  2.4014427998101140e-05  2.4018722010343625e-05  2.4025147343679759e-05  2.4033684620530204e-05  2.4044278145886374e-05  2.4056834333427482e-05  2.4071221355003243e-05  2.4087270164103482e-05  2.4104776948664386e-05  2.4123506961742903e-05  2.4143199571826874e-05  2.4163574280000418e-05  2.4184337379783118e-05  2.4205188895240801e-05  2.4225829427854255e-05  2.4245966571960832e-05  2.4265320617404837e-05  2.4283629338173545e-05  2.4300651757422457e-05  2.4316170872665446e-05  2.4329995411978820e-05  2.4341960767466198e-05  2.4351929312443724e-05  2.4359790346160674e-05  2.4365459892271656e-05  2.4368880400073612e-05  2.4370019840001921e-05  2.2442094007016953e-05  2.2446556337887710e-05  2.2459885254600473e-05  2.2482013455569496e-05  2.2512784626789258e-05  2.2551911057361183e-05  2.2598947844277939e-05  2.2653291004169331e-05  2.2714193927587750e-05  2.2780792449401088e-05  2.2852131969668752e-05  2.2927194977030187e-05  2.3004930007245462e-05  2.3084282883811598e-05  2.3164229443791021e-05  2.3243807473356741e-05  2.3322145033607568e-05  2.3398482696526316e-05  2.3472188080315429e-05  2.3542762130253356e-05  2.3609837580585493e-05  2.3673170792311268e-05  2.3732628616515625e-05  2.3788172084280646e-05  2.3839838627132761e-05  2.3887724268262155e-05  2.3931966878676364e-05  2.3972731233971327e-05  2.4010196284446899e-05  2.4044544789533058e-05  2.4075955274637770e-05  2.4104596140271782e-05  2.4130621678946624e-05  2.4154169722065970e-05  2.4175360634631433e-05  2.4194297389838476e-05  2.4211066480715527e-05  2.4225739456266329e-05  2.4238374901337826e-05  2.4249020710222750e-05  2.4257716532312289e-05  2.4264496293046014e-05  2.4269390714474410e-05  2.4272429776755655e-05  2.4273645074891821e-05  2.4273072034231003e-05  2.4270751954196988e-05  2.4266733853035056e-05  2.4261076087929411e-05  2.4253847725616978e-05  2.4245129639586886e-05  2.4235015312039022e-05  2.4223611322718770e-05  2.4211037512996896e-05  2.4197426822185389e-05  2.4182924803691861e-05  2.4167688840385300e-05  2.4151887090245851e-05  2.4135697203493718e-05  2.4119304859332630e-05  2.4102902172729139e-05  2.4086686018194342e-05  2.4070856307886563e-05  2.4055614245893694e-05  2.4041160560616024e-05  2.4027693695035224e-05  2.4015407913405757e-05  2.4004491266128796e-05  2.3995123345929875e-05  2.3987472771178816e-05  2.3981694348483850e-05  2.3977925897271974e-05  2.3976284762748655e-05  2.3976864097142745e-05  2.3979729047213989e-05  2.3984913041740439e-05  2.3992414418303090e-05  2.4002193656393698e-05  2.4014171487145218e-05  2.4028228124657410e-05  2.4044203809168363e-05  2.4061900771373411e-05  2.4081086627148436e-05  2.4101499103211480e-05  2.4122851889214519e-05  2.4144841322898963e-05  2.4167153552970267e-05  2.4189471796439293e-05  2.4211483315925099e-05  2.4232885785529762e-05  2.4253392784832542e-05  2.4272738249812198e-05  2.4290679806354126e-05  2.4307001006141835e-05  2.4321512567582064e-05  2.4334052789428998e-05  2.4344487346228890e-05  2.4352708683912244e-05  2.4358635192755242e-05  2.4362210214782164e-05  2.4363400746916561e-05  2.2474585626100956e-05  2.2478947097080578e-05  2.2491977827415120e-05  2.2513579667139531e-05  2.2543558248229521e-05  2.2581595209027159e-05  2.2627231601148458e-05  2.2679867566982529e-05  2.2738775362409201e-05  2.2803119884193347e-05  2.2871982492242401e-05  2.2944386782995795e-05  2.3019326542251908e-05  2.3095795871635754e-05  2.3172820307284703e-05  2.3249486729810943e-05  2.3324969548563317e-05  2.3398551007925659e-05  2.3469634251129842e-05  2.3537748715770411e-05  2.3602548310066081e-05  2.3663803489181206e-05  2.3721388751458764e-05  2.3775267206301951e-05  2.3825473776880313e-05  2.3872098363680375e-05  2.3915269983360372e-05  2.3955142573275109e-05  2.3991882858153230e-05  2.4025660435018297e-05  2.4056640052996872e-05  2.4084975942900481e-05  2.4110807978357524e-05  2.4134259414744382e-05  2.4155435943574539e-05  2.4174425809359926e-05  2.4191300756315752e-05  2.4206117598615706e-05  2.4218920236752022e-05  2.4229741971585000e-05  2.4238607995318524e-05  2.4245537963850478e-05  2.4250548576985338e-05  2.4253656111369079e-05  2.4254878865437351e-05  2.4254239486098031e-05  2.4251767153472409e-05  2.4247499603205269e-05  2.4241484966257234e-05  2.4233783404537801e-05  2.4224468518182642e-05  2.4213628497739702e-05  2.4201366992988652e-05  2.4187803670428672e-05  2.4173074434251088e-05  2.4157331291166151e-05  2.4140741847684478e-05  2.4123488438840913e-05  2.4105766898944265e-05  2.4087784996437067e-05  2.4069760564829781e-05  2.4051919368394434e-05  2.4034492743576079e-05  2.4017715054162891e-05  2.4001820990219584e-05  2.3987042728709581e-05  2.3973606959728889e-05  2.3961731769360669e-05  2.3951623361879057e-05  2.3943472603918739e-05  2.3937451384152943e-05  2.3933708805522068e-05  2.3932367262759738e-05  2.3933518503253600e-05  2.3937219819252469e-05  2.3943490567259152e-05  2.3952309248125524e-05  2.3963611400827706e-05  2.3977288557358158e-05  2.3993188471492108e-05  2.4011116770020757e-05  2.4030840085466922e-05  2.4052090622706177e-05  2.4074572000099623e-05  2.4097966102216083e-05  2.4121940599073958e-05  2.4146156736550427e-05  2.4170276990300387e-05  2.4193972201993528e-05  2.4216927877449774e-05  2.4238849412627794e-05  2.4259466114149403e-05  2.4278533984277067e-05  2.4295837335291097e-05  2.4311189376598833e-05  2.4324431973742688e-05  2.4335434807665462e-05  2.4344094161523806e-05  2.4350331527714168e-05  2.4354092163316595e-05  2.4355343663498609e-05  2.2514344478905994e-05  2.2518568217696694e-05  2.2531200586303916e-05  2.2552118272210036e-05  2.2581096937149608e-05  2.2617794839687216e-05  2.2661743634619210e-05  2.2712349833877445e-05  2.2768905770106870e-05  2.2830606967760585e-05  2.2896573446052869e-05  2.2965873891433519e-05  2.3037552380484818e-05  2.3110657041592148e-05  2.3184269222964709e-05  2.3257531081887293e-05  2.3329669383108740e-05  2.3400013678348550e-05  2.3468007747476156e-05  2.3533214003387263e-05  2.3595311321408770e-05  2.3654087332609847e-05  2.3709426564229939e-05  2.3761295921268194e-05  2.3809728922845920e-05  2.3854809897056842e-05  2.3896659062483925e-05  2.3935419136807344e-05  2.3971243850145789e-05  2.4004288523552278e-05  2.4034702708417782e-05  2.4062624768139605e-05  2.4088178211905310e-05  2.4111469552598599e-05  2.4132587447680011e-05  2.4151602885810363e-05  2.4168570197039036e-05  2.4183528686229400e-05  2.4196504714961194e-05  2.4207514084254872e-05  2.4216564597507198e-05  2.4223658708769111e-05  2.4228796184921377e-05  2.4231976730573566e-05  2.4233202540970279e-05  2.4232480760387193e-05  2.4229825831236170e-05  2.4225261722441316e-05  2.4218824024947287e-05  2.4210561898100680e-05  2.4200539843977933e-05  2.4188839278599326e-05  2.4175559860601504e-05  2.4160820530653587e-05  2.4144760209992780e-05  2.4127538105092255e-05  2.4109333568551001e-05  2.4090345474279553e-05  2.4070791077839016e-05  2.4050904349587907e-05  2.4030933787620126e-05  2.4011139737273545e-05  2.3991791261867772e-05  2.3973162622993646e-05  2.3955529436403437e-05  2.3939164570667890e-05  2.3924333850989754e-05  2.3911291622080459e-05  2.3900276215236588e-05  2.3891505359783831e-05  2.3885171581831811e-05  2.3881437646680957e-05  2.3880432126192087e-05  2.3882245207376545e-05  2.3886924899031127e-05  2.3894473832593461e-05  2.3904846883052940e-05  2.3917949846924619e-05  2.3933639399518337e-05  2.3951724508588948e-05  2.3971969405951326e-05  2.3994098117968886e-05  2.4017800440100893e-05  2.4042739123708609e-05  2.4068557940345818e-05  2.4094890213899087e-05  2.4121367374572100e-05  2.4147627095610653e-05  2.4173320622292103e-05  2.4198118985703202e-05  2.4221717899652655e-05  2.4243841254197425e-05  2.4264243230540303e-05  2.4282709158524027e-05  2.4299055311930145e-05  2.4313127884085353e-05  2.4324801405655206e-05  2.4333976859129820e-05  2.4340579714527370e-05  2.4344558069012073e-05  2.4345881043657581e-05  2.2561714911769415e-05  2.2565762889773003e-05  2.2577893551494817e-05  2.2597965908503057e-05  2.2625735196471001e-05  2.2660844729687976e-05  2.2702822368780089e-05  2.2751083929759938e-05  2.2804943369553367e-05  2.2863628347963763e-05  2.2926299819435782e-05  2.2992074818491469e-05  2.3060051797263316e-05  2.3129337538531757e-05  2.3199074101776177e-05  2.3268463878026314e-05  2.3336790843760414e-05  2.3403436495928574e-05  2.3467889581922256e-05  2.3529749447139094e-05  2.3588723468899682e-05  2.3644619534021133e