<?xml version="1.0"?>
<VTKFile type="UnstructuredGrid"  version="0.1"  >
<UnstructuredGrid>
<Piece  NumberOfPoints="10201" NumberOfCells="20000">
<Points>
<DataArray  type="Float64"  NumberOfComponents="3"  format="ascii">0 0 0  0.25 0 0  0.5 0 0  0.75 0 0  1 0 0  1.25 0 0  1.5 0 0  1.75 0 0  2 0 0  2.25 0 0  2.5 0 0  2.75 0 0  3 0 0  3.25 0 0  3.5 0 0  3.75 0 0  4 0 0  4.25 0 0  4.5 0 0  4.75 0 0  5 0 0  5.25 0 0  5.5 0 0  5.75 0 0  6 0 0  6.25 0 0  6.5 0 0  6.75 0 0  7 0 0  7.25 0 0  7.5 0 0  7.75 0 0  8 0 0  8.25 0 0  8.5 0 0  8.75 0 0  9 0 0  9.25 0 0  9.5 0 0  9.75 0 0  10 0 0  10.25 0 0  10.5 0 0  10.75 0 0  11 0 0  11.25 0 0  11.5 0 0  11.75 0 0  12 0 0  12.25 0 0  12.5 0 0  12.75 0 0  13 0 0  13.25 0 0  13.5 0 0  13.75 0 0  14 0 0  14.25 0 0  14.5 0 0  14.75 0 0  15 0 0  15.25 0 0  15.5 0 0  15.75 0 0  16 0 0  16.25 0 0  16.5 0 0  16.75 0 0  17 0 0  17.25 0 0  17.5 0 0  17.75 0 0  18 0 0  18.25 0 0  18.5 0 0  18.75 0 0  19 0 0  19.25 0 0  19.5 0 0  19.75 0 0  20 0 0  20.25 0 0  20.5 0 0  20.75 0 0  21 0 0  21.25 0 0  21.5 0 0  21.75 0 0  22 0 0  22.25 0 0  22.5 0 0  22.75 0 0  23 0 0  23.25 0 0  23.5 0 0  23.75 0 0  24 0 0  24.25 0 0  24.5 0 0  24.75 0 0  25 0 0  0 0.25 0  0.25 0.25 0  0.5 0.25 0  0.75 0.25 0  1 0.25 0  1.25 0.25 0  1.5 0.25 0  1.75 0.25 0  2 0.25 0  2.25 0.25 0  2.5 0.25 0  2.75 0.25 0  3 0.25 0  3.25 0.25 0  3.5 0.25 0  3.75 0.25 0  4 0.25 0  4.25 0.25 0  4.5 0.25 0  4.75 0.25 0  5 0.25 0  5.25 0.25 0  5.5 0.25 0  5.75 0.25 0  6 0.25 0  6.25 0.25 0  6.5 0.25 0  6.75 0.25 0  7 0.25 0  7.25 0.25 0  7.5 0.25 0  7.75 0.25 0  8 0.25 0  8.25 0.25 0  8.5 0.25 0  8.75 0.25 0  9 0.25 0  9.25 0.25 0  9.5 0.25 0  9.75 0.25 0  10 0.25 0  10.25 0.25 0  10.5 0.25 0  10.75 0.25 0  11 0.25 0  11.25 0.25 0  11.5 0.25 0  11.75 0.25 0  12 0.25 0  12.25 0.25 0  12.5 0.25 0  12.75 0.25 0  13 0.25 0  13.25 0.25 0  13.5 0.25 0  13.75 0.25 0  14 0.25 0  14.25 0.25 0  14.5 0.25 0  14.75 0.25 0  15 0.25 0  15.25 0.25 0  15.5 0.25 0  15.75 0.25 0  16 0.25 0  16.25 0.25 0  16.5 0.25 0  16.75 0.25 0  17 0.25 0  17.25 0.25 0  17.5 0.25 0  17.75 0.25 0  18 0.25 0  18.25 0.25 0  18.5 0.25 0  18.75 0.25 0  19 0.25 0  19.25 0.25 0  19.5 0.25 0  19.75 0.25 0  20 0.25 0  20.25 0.25 0  20.5 0.25 0  20.75 0.25 0  21 0.25 0  21.25 0.25 0  21.5 0.25 0  21.75 0.25 0  22 0.25 0  22.25 0.25 0  22.5 0.25 0  22.75 0.25 0  23 0.25 0  23.25 0.25 0  23.5 0.25 0  23.75 0.25 0  24 0.25 0  24.25 0.25 0  24.5 0.25 0  24.75 0.25 0  25 0.25 0  0 0.5 0  0.25 0.5 0  0.5 0.5 0  0.75 0.5 0  1 0.5 0  1.25 0.5 0  1.5 0.5 0  1.75 0.5 0  2 0.5 0  2.25 0.5 0  2.5 0.5 0  2.75 0.5 0  3 0.5 0  3.25 0.5 0  3.5 0.5 0  3.75 0.5 0  4 0.5 0  4.25 0.5 0  4.5 0.5 0  4.75 0.5 0  5 0.5 0  5.25 0.5 0  5.5 0.5 0  5.75 0.5 0  6 0.5 0  6.25 0.5 0  6.5 0.5 0  6.75 0.5 0  7 0.5 0  7.25 0.5 0  7.5 0.5 0  7.75 0.5 0  8 0.5 0  8.25 0.5 0  8.5 0.5 0  8.75 0.5 0  9 0.5 0  9.25 0.5 0  9.5 0.5 0  9.75 0.5 0  10 0.5 0  10.25 0.5 0  10.5 0.5 0  10.75 0.5 0  11 0.5 0  11.25 0.5 0  11.5 0.5 0  11.75 0.5 0  12 0.5 0  12.25 0.5 0  12.5 0.5 0  12.75 0.5 0  13 0.5 0  13.25 0.5 0  13.5 0.5 0  13.75 0.5 0  14 0.5 0  14.25 0.5 0  14.5 0.5 0  14.75 0.5 0  15 0.5 0  15.25 0.5 0  15.5 0.5 0  15.75 0.5 0  16 0.5 0  16.25 0.5 0  16.5 0.5 0  16.75 0.5 0  17 0.5 0  17.25 0.5 0  17.5 0.5 0  17.75 0.5 0  18 0.5 0  18.25 0.5 0  18.5 0.5 0  18.75 0.5 0  19 0.5 0  19.25 0.5 0  19.5 0.5 0  19.75 0.5 0  20 0.5 0  20.25 0.5 0  20.5 0.5 0  20.75 0.5 0  21 0.5 0  21.25 0.5 0  21.5 0.5 0  21.75 0.5 0  22 0.5 0  22.25 0.5 0  22.5 0.5 0  22.75 0.5 0  23 0.5 0  23.25 0.5 0  23.5 0.5 0  23.75 0.5 0  24 0.5 0  24.25 0.5 0  24.5 0.5 0  24.75 0.5 0  25 0.5 0  0 0.75 0  0.25 0.75 0  0.5 0.75 0  0.75 0.75 0  1 0.75 0  1.25 0.75 0  1.5 0.75 0  1.75 0.75 0  2 0.75 0  2.25 0.75 0  2.5 0.75 0  2.75 0.75 0  3 0.75 0  3.25 0.75 0  3.5 0.75 0  3.75 0.75 0  4 0.75 0  4.25 0.75 0  4.5 0.75 0  4.75 0.75 0  5 0.75 0  5.25 0.75 0  5.5 0.75 0  5.75 0.75 0  6 0.75 0  6.25 0.75 0  6.5 0.75 0  6.75 0.75 0  7 0.75 0  7.25 0.75 0  7.5 0.75 0  7.75 0.75 0  8 0.75 0  8.25 0.75 0  8.5 0.75 0  8.75 0.75 0  9 0.75 0  9.25 0.75 0  9.5 0.75 0  9.75 0.75 0  10 0.75 0  10.25 0.75 0  10.5 0.75 0  10.75 0.75 0  11 0.75 0  11.25 0.75 0  11.5 0.75 0  11.75 0.75 0  12 0.75 0  12.25 0.75 0  12.5 0.75 0  12.75 0.75 0  13 0.75 0  13.25 0.75 0  13.5 0.75 0  13.75 0.75 0  14 0.75 0  14.25 0.75 0  14.5 0.75 0  14.75 0.75 0  15 0.75 0  15.25 0.75 0  15.5 0.75 0  15.75 0.75 0  16 0.75 0  16.25 0.75 0  16.5 0.75 0  16.75 0.75 0  17 0.75 0  17.25 0.75 0  17.5 0.75 0  17.75 0.75 0  18 0.75 0  18.25 0.75 0  18.5 0.75 0  18.75 0.75 0  19 0.75 0  19.25 0.75 0  19.5 0.75 0  19.75 0.75 0  20 0.75 0  20.25 0.75 0  20.5 0.75 0  20.75 0.75 0  21 0.75 0  21.25 0.75 0  21.5 0.75 0  21.75 0.75 0  22 0.75 0  22.25 0.75 0  22.5 0.75 0  22.75 0.75 0  23 0.75 0  23.25 0.75 0  23.5 0.75 0  23.75 0.75 0  24 0.75 0  24.25 0.75 0  24.5 0.75 0  24.75 0.75 0  25 0.75 0  0 1 0  0.25 1 0  0.5 1 0  0.75 1 0  1 1 0  1.25 1 0  1.5 1 0  1.75 1 0  2 1 0  2.25 1 0  2.5 1 0  2.75 1 0  3 1 0  3.25 1 0  3.5 1 0  3.75 1 0  4 1 0  4.25 1 0  4.5 1 0  4.75 1 0  5 1 0  5.25 1 0  5.5 1 0  5.75 1 0  6 1 0  6.25 1 0  6.5 1 0  6.75 1 0  7 1 0  7.25 1 0  7.5 1 0  7.75 1 0  8 1 0  8.25 1 0  8.5 1 0  8.75 1 0  9 1 0  9.25 1 0  9.5 1 0  9.75 1 0  10 1 0  10.25 1 0  10.5 1 0  10.75 1 0  11 1 0  11.25 1 0  11.5 1 0  11.75 1 0  12 1 0  12.25 1 0  12.5 1 0  12.75 1 0  13 1 0  13.25 1 0  13.5 1 0  13.75 1 0  14 1 0  14.25 1 0  14.5 1 0  14.75 1 0  15 1 0  15.25 1 0  15.5 1 0  15.75 1 0  16 1 0  16.25 1 0  16.5 1 0  16.75 1 0  17 1 0  17.25 1 0  17.5 1 0  17.75 1 0  18 1 0  18.25 1 0  18.5 1 0  18.75 1 0  19 1 0  19.25 1 0  19.5 1 0  19.75 1 0  20 1 0  20.25 1 0  20.5 1 0  20.75 1 0  21 1 0  21.25 1 0  21.5 1 0  21.75 1 0  22 1 0  22.25 1 0  22.5 1 0  22.75 1 0  23 1 0  23.25 1 0  23.5 1 0  23.75 1 0  24 1 0  24.25 1 0  24.5 1 0  24.75 1 0  25 1 0  0 1.25 0  0.25 1.25 0  0.5 1.25 0  0.75 1.25 0  1 1.25 0  1.25 1.25 0  1.5 1.25 0  1.75 1.25 0  2 1.25 0  2.25 1.25 0  2.5 1.25 0  2.75 1.25 0  3 1.25 0  3.25 1.25 0  3.5 1.25 0  3.75 1.25 0  4 1.25 0  4.25 1.25 0  4.5 1.25 0  4.75 1.25 0  5 1.25 0  5.25 1.25 0  5.5 1.25 0  5.75 1.25 0  6 1.25 0  6.25 1.25 0  6.5 1.25 0  6.75 1.25 0  7 1.25 0  7.25 1.25 0  7.5 1.25 0  7.75 1.25 0  8 1.25 0  8.25 1.25 0  8.5 1.25 0  8.75 1.25 0  9 1.25 0  9.25 1.25 0  9.5 1.25 0  9.75 1.25 0  10 1.25 0  10.25 1.25 0  10.5 1.25 0  10.75 1.25 0  11 1.25 0  11.25 1.25 0  11.5 1.25 0  11.75 1.25 0  12 1.25 0  12.25 1.25 0  12.5 1.25 0  12.75 1.25 0  13 1.25 0  13.25 1.25 0  13.5 1.25 0  13.75 1.25 0  14 1.25 0  14.25 1.25 0  14.5 1.25 0  14.75 1.25 0  15 1.25 0  15.25 1.25 0  15.5 1.25 0  15.75 1.25 0  16 1.25 0  16.25 1.25 0  16.5 1.25 0  16.75 1.25 0  17 1.25 0  17.25 1.25 0  17.5 1.25 0  17.75 1.25 0  18 1.25 0  18.25 1.25 0  18.5 1.25 0  18.75 1.25 0  19 1.25 0  19.25 1.25 0  19.5 1.25 0  19.75 1.25 0  20 1.25 0  20.25 1.25 0  20.5 1.25 0  20.75 1.25 0  21 1.25 0  21.25 1.25 0  21.5 1.25 0  21.75 1.25 0  22 1.25 0  22.25 1.25 0  22.5 1.25 0  22.75 1.25 0  23 1.25 0  23.25 1.25 0  23.5 1.25 0  23.75 1.25 0  24 1.25 0  24.25 1.25 0  24.5 1.25 0  24.75 1.25 0  25 1.25 0  0 1.5 0  0.25 1.5 0  0.5 1.5 0  0.75 1.5 0  1 1.5 0  1.25 1.5 0  1.5 1.5 0  1.75 1.5 0  2 1.5 0  2.25 1.5 0  2.5 1.5 0  2.75 1.5 0  3 1.5 0  3.25 1.5 0  3.5 1.5 0  3.75 1.5 0  4 1.5 0  4.25 1.5 0  4.5 1.5 0  4.75 1.5 0  5 1.5 0  5.25 1.5 0  5.5 1.5 0  5.75 1.5 0  6 1.5 0  6.25 1.5 0  6.5 1.5 0  6.75 1.5 0  7 1.5 0  7.25 1.5 0  7.5 1.5 0  7.75 1.5 0  8 1.5 0  8.25 1.5 0  8.5 1.5 0  8.75 1.5 0  9 1.5 0  9.25 1.5 0  9.5 1.5 0  9.75 1.5 0  10 1.5 0  10.25 1.5 0  10.5 1.5 0  10.75 1.5 0  11 1.5 0  11.25 1.5 0  11.5 1.5 0  11.75 1.5 0  12 1.5 0  12.25 1.5 0  12.5 1.5 0  12.75 1.5 0  13 1.5 0  13.25 1.5 0  13.5 1.5 0  13.75 1.5 0  14 1.5 0  14.25 1.5 0  14.5 1.5 0  14.75 1.5 0  15 1.5 0  15.25 1.5 0  15.5 1.5 0  15.75 1.5 0  16 1.5 0  16.25 1.5 0  16.5 1.5 0  16.75 1.5 0  17 1.5 0  17.25 1.5 0  17.5 1.5 0  17.75 1.5 0  18 1.5 0  18.25 1.5 0  18.5 1.5 0  18.75 1.5 0  19 1.5 0  19.25 1.5 0  19.5 1.5 0  19.75 1.5 0  20 1.5 0  20.25 1.5 0  20.5 1.5 0  20.75 1.5 0  21 1.5 0  21.25 1.5 0  21.5 1.5 0  21.75 1.5 0  22 1.5 0  22.25 1.5 0  22.5 1.5 0  22.75 1.5 0  23 1.5 0  23.25 1.5 0  23.5 1.5 0  23.75 1.5 0  24 1.5 0  24.25 1.5 0  24.5 1.5 0  24.75 1.5 0  25 1.5 0  0 1.75 0  0.25 1.75 0  0.5 1.75 0  0.75 1.75 0  1 1.75 0  1.25 1.75 0  1.5 1.75 0  1.75 1.75 0  2 1.75 0  2.25 1.75 0  2.5 1.75 0  2.75 1.75 0  3 1.75 0  3.25 1.75 0  3.5 1.75 0  3.75 1.75 0  4 1.75 0  4.25 1.75 0  4.5 1.75 0  4.75 1.75 0  5 1.75 0  5.25 1.75 0  5.5 1.75 0  5.75 1.75 0  6 1.75 0  6.25 1.75 0  6.5 1.75 0  6.75 1.75 0  7 1.75 0  7.25 1.75 0  7.5 1.75 0  7.75 1.75 0  8 1.75 0  8.25 1.75 0  8.5 1.75 0  8.75 1.75 0  9 1.75 0  9.25 1.75 0  9.5 1.75 0  9.75 1.75 0  10 1.75 0  10.25 1.75 0  10.5 1.75 0  10.75 1.75 0  11 1.75 0  11.25 1.75 0  11.5 1.75 0  11.75 1.75 0  12 1.75 0  12.25 1.75 0  12.5 1.75 0  12.75 1.75 0  13 1.75 0  13.25 1.75 0  13.5 1.75 0  13.75 1.75 0  14 1.75 0  14.25 1.75 0  14.5 1.75 0  14.75 1.75 0  15 1.75 0  15.25 1.75 0  15.5 1.75 0  15.75 1.75 0  16 1.75 0  16.25 1.75 0  16.5 1.75 0  16.75 1.75 0  17 1.75 0  17.25 1.75 0  17.5 1.75 0  17.75 1.75 0  18 1.75 0  18.25 1.75 0  18.5 1.75 0  18.75 1.75 0  19 1.75 0  19.25 1.75 0  19.5 1.75 0  19.75 1.75 0  20 1.75 0  20.25 1.75 0  20.5 1.75 0  20.75 1.75 0  21 1.75 0  21.25 1.75 0  21.5 1.75 0  21.75 1.75 0  22 1.75 0  22.25 1.75 0  22.5 1.75 0  22.75 1.75 0  23 1.75 0  23.25 1.75 0  23.5 1.75 0  23.75 1.75 0  24 1.75 0  24.25 1.75 0  24.5 1.75 0  24.75 1.75 0  25 1.75 0  0 2 0  0.25 2 0  0.5 2 0  0.75 2 0  1 2 0  1.25 2 0  1.5 2 0  1.75 2 0  2 2 0  2.25 2 0  2.5 2 0  2.75 2 0  3 2 0  3.25 2 0  3.5 2 0  3.75 2 0  4 2 0  4.25 2 0  4.5 2 0  4.75 2 0  5 2 0  5.25 2 0  5.5 2 0  5.75 2 0  6 2 0  6.25 2 0  6.5 2 0  6.75 2 0  7 2 0  7.25 2 0  7.5 2 0  7.75 2 0  8 2 0  8.25 2 0  8.5 2 0  8.75 2 0  9 2 0  9.25 2 0  9.5 2 0  9.75 2 0  10 2 0  10.25 2 0  10.5 2 0  10.75 2 0  11 2 0  11.25 2 0 
[...]
<PointData  Scalars="f_26"> 
<DataArray  type="Float64"  Name="f_26"  format="ascii">2.6095582661771841e-05  2.6084384006196480e-05  2.6059978750177777e-05  2.6019875864079610e-05  2.5961877681301359e-05  2.5883433871452823e-05  2.5781614582796166e-05  2.5653340419379128e-05  2.5495822720902133e-05  2.5307207960055125e-05  2.5087366851532295e-05  2.4838666711657973e-05  2.4566462985488081e-05  2.4279006081586351e-05  2.3986595227869686e-05  2.3701316458814454e-05  2.3440597786053676e-05  2.3236847368974324e-05  2.3116452357585665e-05  2.3054174138567495e-05  2.3023711572057736e-05  2.3014676653521345e-05  2.3020490018202342e-05  2.3035723230064286e-05  2.3056037191398328e-05  2.3078386355554722e-05  2.3101109985771685e-05  2.3123792569164363e-05  2.3146946606557267e-05  2.3171627714764986e-05  2.3199059493455649e-05  2.3230300232716475e-05  2.3265967164693902e-05  2.3306041057352115e-05  2.3349778249152110e-05  2.3395742508511719e-05  2.3441941719070388e-05  2.3486032142451327e-05  2.3525546653803864e-05  2.3558110968825902e-05  2.3581625918379735e-05  2.3594407837472515e-05  2.3595289414118088e-05  2.3583688454531333e-05  2.3559652223927491e-05  2.3523881482464270e-05  2.3477732342494646e-05  2.3423186808567228e-05  2.3362775834951406e-05  2.3299434621062455e-05  2.3236273417240860e-05  2.3176265008863005e-05  2.3121886036036750e-05  2.3074792826761625e-05  2.3035633142325513e-05  2.3004062953645672e-05  2.2978957127524616e-05  2.2958723564013914e-05  2.2941604877410332e-05  2.2925886415162101e-05  2.2909987306647459e-05  2.2892445741373113e-05  2.2871834857008383e-05  2.2846568794473274e-05  2.2814746731399282e-05  2.2773294001180782e-05  2.2718473690507580e-05  2.2638511837618519e-05  2.2525630750579824e-05  2.2293745887798078e-05  2.1994115399018754e-05  2.2086145426715956e-05  2.2365829533145798e-05  2.2694635165636104e-05  2.3042696254189950e-05  2.3391666676838328e-05  2.3724765093023050e-05  2.4028119448861109e-05  2.4292864807174179e-05  2.4515585823694894e-05  2.4697365741961857e-05  2.4842219671680000e-05  2.4955570373509966e-05  2.5043109946627039e-05  2.5110112104697709e-05  2.5161110079485910e-05  2.5199814999664409e-05  2.5229166537708139e-05  2.5251441387405940e-05  2.5268375816888656e-05  2.5281280203814409e-05  2.5291136628257071e-05  2.5298677685010018e-05  2.5304447996002671e-05  2.5308851122598661e-05  2.5312184736689949e-05  2.5314666593094100e-05  2.5316453336169984e-05  2.5317653509124208e-05  2.5318334895497991e-05  2.5318522262735541e-05  2.6076828772809016e-05  2.6068112739243253e-05  2.6043978772791017e-05  2.6003500443654078e-05  2.5944843294246188e-05  2.5865574708154300e-05  2.5762842986253181e-05  2.5633656758614554e-05  2.5475336427785745e-05  2.5286153669535679e-05  2.5066102966858012e-05  2.4817646269181463e-05  2.4546171832349654e-05  2.4259868274936615e-05  2.3968917260084912e-05  2.3685339868615721e-05  2.3426184922566588e-05  2.3223247166117164e-05  2.3105075471613632e-05  2.3046113535383297e-05  2.3017753654121691e-05  2.3010532191321605e-05  2.3017798480455420e-05  2.3034078647584996e-05  2.3055071655069734e-05  2.3077816178236201e-05  2.3100749729667979e-05  2.3123543800658253e-05  2.3146775117816731e-05  2.3171539438970864e-05  2.3199081118227484e-05  2.3230466632349510e-05  2.3266315094349027e-05  2.3306607078861346e-05  2.3350598417311640e-05  2.3396851852401644e-05  2.3443372631830735e-05  2.3487811815342703e-05  2.3527694223483631e-05  2.3560635061108513e-05  2.3584522968899014e-05  2.3597661184843985e-05  2.3598868879123310e-05  2.3587550040876164e-05  2.3563737720213447e-05  2.3528118072384524e-05  2.3482032762795935e-05  2.3427451003430427e-05  2.3366895249946644e-05  2.3303300036489615e-05  2.3239786348487212e-05  2.3179351119565073e-05  2.3124507014625641e-05  2.3076951916096015e-05  2.3037370694939378e-05  2.3005442512691699e-05  2.2980047299018831e-05  2.2959582578948145e-05  2.2942271939846697e-05  2.2926379801557077e-05  2.2910306004266349e-05  2.2892573606850864e-05  2.2871738888965222e-05  2.2846214346081145e-05  2.2814045488840490e-05  2.2772293731264983e-05  2.2716683590847787e-05  2.2637322160918958e-05  2.2521181499234689e-05  2.2298858930342848e-05  2.2010195141563391e-05  2.2090291617771144e-05  2.2367645725170147e-05  2.2696006031302025e-05  2.3043734711225523e-05  2.3392473306297288e-05  2.3725542891101452e-05  2.4028964234897870e-05  2.4293776268905712e-05  2.4516512579040421e-05  2.4698244758940979e-05  2.4843001768948095e-05  2.4956229502818150e-05  2.5043641145129447e-05  2.5110524699775438e-05  2.5161420713657839e-05  2.5200042455939452e-05  2.5229328643407005e-05  2.5251553544610759e-05  2.5268450571721720e-05  2.5281327377443792e-05  2.5291163694210255e-05  2.5298690212109591e-05  2.5304450067573844e-05  2.5308845697961563e-05  2.5312173954466934e-05  2.5314652046878543e-05  2.5316436428410100e-05  2.5317636295803439e-05  2.5318323257941225e-05  2.5318540216309861e-05  2.6029084107865015e-05  2.6020613061982163e-05  2.5995955958483418e-05  2.5954211105775228e-05  2.5893688141834471e-05  2.5812095102345473e-05  2.5706746095874699e-05  2.5574870556554500e-05  2.5414078966140146e-05  2.5222994997606436e-05  2.5001991298710886e-05  2.4753868392122240e-05  2.4484226446091392e-05  2.4201241500948201e-05  2.3914919513093930e-05  2.3637287500784462e-05  2.3386068962943811e-05  2.3194322786795480e-05  2.3086625809400437e-05  2.3033190829128450e-05  2.3008392780566410e-05  2.3004063255896806e-05  2.3013428471981255e-05  2.3031136149326981e-05  2.3053028737528820e-05  2.3076311236355750e-05  2.3099572633571908e-05  2.3122602475250319e-05  2.3146060454839555e-05  2.3171097016320367e-05  2.3198991364706219e-05  2.3230831360265772e-05  2.3267247718123093e-05  2.3308224601125114e-05  2.3353014163047466e-05  2.3400168570790105e-05  2.3447676045184146e-05  2.3493165007980682e-05  2.3534133289622543e-05  2.3568166138410899e-05  2.3593120389590321e-05  2.3607266243607831e-05  2.3609388752548250e-05  2.3598856651161547e-05  2.3575666731415822e-05  2.3540468682812078e-05  2.3494569459692833e-05  2.3439908857430301e-05  2.3378990410711233e-05  2.3314746552156233e-05  2.3250319109736220e-05  2.3188752729684064e-05  2.3132633950446413e-05  2.3083752955443132e-05  2.3042889878049714e-05  2.3009802515590154e-05  2.2983417081777464e-05  2.2962140284499676e-05  2.2944174524679602e-05  2.2927745236237035e-05  2.2911207415314438e-05  2.2893040826224789e-05  2.2871763845689152e-05  2.2845751517587966e-05  2.2813026708007926e-05  2.2770566578253563e-05  2.2714200837497654e-05  2.2633448810116751e-05  2.2516437240699389e-05  2.2290669731202339e-05  2.2011065825365256e-05  2.2095867322579890e-05  2.2373469967636907e-05  2.2701644811498933e-05  2.3048997204108998e-05  2.3397217116862408e-05  2.3729704231175280e-05  2.4032523817279292e-05  2.4296744360333289e-05  2.4518923220035734e-05  2.4700150841436818e-05  2.4844468782302664e-05  2.4957328407739529e-05  2.5044441766294233e-05  2.5111090815263777e-05  2.5161807261378666e-05  2.5200294611007576e-05  2.5229482204913466e-05  2.5251636052706282e-05  2.5268482707547019e-05  2.5281324361422247e-05  2.5291136533859633e-05  2.5298646743055693e-05  2.5304395786146861e-05  2.5308784412636275e-05  2.5312108299046378e-05  2.5314583913298849e-05  2.5316367405378703e-05  2.5317568242392005e-05  2.5318259030582201e-05  2.5318482834792117e-05  2.5948358978706491e-05  2.5939520876652994e-05  2.5913636830362757e-05  2.5869746545242921e-05  2.5806248050866356e-05  2.5721020915701777e-05  2.5611636158382224e-05  2.5475683893355611e-05  2.5311247609885146e-05  2.5117516866183293e-05  2.4895461777441268e-05  2.4648405391259626e-05  2.4382251400349111e-05  2.4105119875224497e-05  2.3826846013778393e-05  2.3559670286975947e-05  2.3323156088885151e-05  2.3152081327467989e-05  2.3060918130539931e-05  2.3015522507218040e-05  2.2996304187440659e-05  2.2996042367769454e-05  2.3008129885587119e-05  2.3027528795285457e-05  2.3050375211943365e-05  2.3074165481410516e-05  2.3097719744107591e-05  2.3120988971694925e-05  2.3144735361258747e-05  2.3170172373177733e-05  2.3198618985852866e-05  2.3231188519045106e-05  2.3268525863796940e-05  2.3310618323919686e-05  2.3356709955777416e-05  2.3405333886268768e-05  2.3454449344507566e-05  2.3501647496983274e-05  2.3544382836536104e-05  2.3580193361353443e-05  2.3606886336379176e-05  2.3622680805925370e-05  2.3626309083892433e-05  2.3617085289838747e-05  2.3594949724644626e-05  2.3560494695068663e-05  2.3514971590193596e-05  2.3460271561027431e-05  2.3398864183919271e-05  2.3333672415989370e-05  2.3267863030148559e-05  2.3204547085977107e-05  2.3146419499159187e-05  2.3095411102726746e-05  2.3052453288989388e-05  2.3017435950904855e-05  2.2989371473325807e-05  2.2966695125685233e-05  2.2947586941433125e-05  2.2930216957623768e-05  2.2912870254174811e-05  2.2893955066294133e-05  2.2871920293205864e-05  2.2845074968286010e-05  2.2811360905204619e-05  2.2767670099653664e-05  2.2709657498104355e-05  2.2626556555121163e-05  2.2506297886826257e-05  2.2273869300892539e-05  2.2008411026029486e-05  2.2104205480708776e-05  2.2383231142194447e-05  2.2711364068039296e-05  2.3058211971040203e-05  2.3405583959019588e-05  2.3736987791673707e-05  2.4038616508179247e-05  2.4301657827842410e-05  2.4522756246667163e-05  2.4703051635939215e-05  2.4846602353208825e-05  2.4958853886072944e-05  2.5045499723220139e-05  2.5111798239191222e-05  2.5162257410548728e-05  2.5200559451952212e-05  2.5229615880222975e-05  2.5251678462198338e-05  2.5268462741839160e-05  2.5281262609994427e-05  2.5291047446729765e-05  2.5298540301067922e-05  2.5304278763598024e-05  2.5308661320248159e-05  2.5311982088972414e-05  2.5314456517778128e-05  2.5316240164337656e-05  2.5317442225389776e-05  2.5318135076433139e-05  2.5318360624281343e-05  2.5830401655105719e-05  2.5821000006820125e-05  2.5793413075679024e-05  2.5746699176754918e-05  2.5679389070276145e-05  2.5589607818365824e-05  2.5475297547983796e-05  2.5334560175859266e-05  2.5166129193408839e-05  2.4969941956775815e-05  2.4747720905193301e-05  2.4503396319238189e-05  2.4243132481027923e-05  2.3974928271036611e-05  2.3708577876405145e-05  2.3457066742221317e-05  2.3243461546005649e-05  2.3101884869232393e-05  2.3030096489187440e-05  2.2994385278969851e-05  2.2982325413591230e-05  2.2986997823403293e-05  2.3002236235095878e-05  2.3023441979023824e-05  2.3047192722267664e-05  2.3071381987349497e-05  2.3095127574665616e-05  2.3118579215032956e-05  2.3142619463740442e-05  2.3168532544560888e-05  2.3197680614573908e-05  2.3231203985336589e-05  2.3269761712890710e-05  2.3313342231474468e-05  2.3361177066150088e-05  2.3411773278542395e-05  2.3463051573020755e-05  2.3512554171305837e-05  2.3557678971779274e-05  2.3595902552654071e-05  2.3624968012105626e-05  2.3643028390150691e-05  2.3648748027136697e-05  2.3641370460916598e-05  2.3620762397778654e-05  2.3587440230476177e-05  2.3542579883317335e-05  2.3488003331904691e-05  2.3426126836348498e-05  2.3359848834537376e-05  2.3292354560588859e-05  2.3226827869137339e-05  2.3166094073041205e-05  2.3112262189463511e-05  2.3066464036080624e-05  2.3028774352750240e-05  2.2998337180753945e-05  2.2973645105647939e-05  2.2952864117030263e-05  2.2934099450019357e-05  2.2915545218288550e-05  2.2895511010047977e-05  2.2872346489365778e-05  2.2844261925601190e-05  2.2809080459135768e-05  2.2763561394279366e-05  2.2703098464732555e-05  2.2616609011105619e-05  2.2491302654072667e-05  2.2251118242574028e-05  2.2005569142101449e-05  2.2115610360221682e-05  2.2396649408789890e-05  2.2724785660595116e-05  2.3070958479946390e-05  2.3417149459797382e-05  2.3747011133628397e-05  2.4046927470936037e-05  2.4308273463970861e-05  2.4527831032437754e-05  2.4706815087963765e-05  2.4849305395925524e-05  2.4960733045090610e-05  2.5046758730708538e-05  2.5112602296936859e-05  2.5162734881481735e-05  2.5200806993210472e-05  2.5229704543826324e-05  2.5251659472798333e-05  2.5268372414658634e-05  2.5281126286803888e-05  2.5290882524437521e-05  2.5298358501083035e-05  2.5304087801625657e-05  2.5308466120480540e-05  2.5311785661518443e-05  2.5314260590507609e-05  2.5316045628622503e-05  2.5317249409839056e-05  2.5317943794669091e-05  2.5318169916245889e-05  2.5670678739322450e-05  2.5660694321599535e-05  2.5631183679488702e-05  2.5581308162263486e-05  2.5509816597711223e-05  2.5415185762970090e-05  2.5295861059158136e-05  2.5150606466430042e-05  2.4978954938287856e-05  2.4781711653205656e-05  2.4561405162512268e-05  2.4322509601924344e-05  2.4071300046443343e-05  2.3815736334161248e-05  2.3565858880760233e-05  2.3336732931088472e-05  2.3156285425487712e-05  2.3049816797827612e-05  2.2996775896124441e-05  2.2972011021843780e-05  2.2968084857122730e-05  2.2978010151969417e-05  2.2996384838058994e-05  2.3019195639219700e-05  2.3043595170508261e-05  2.3067942020323859e-05  2.3091687883845828e-05  2.3115196880134630e-05  2.3139477092121065e-05  2.3165884364882052e-05  2.3195823382464973e-05  2.3230460200771872e-05  2.3270466222119714e-05  2.3315828442092378e-05  2.3365762319862001e-05  2.3418744042077551e-05  2.3472649378595884e-05  2.3524963504650722e-05  2.3573018213472606e-05  2.3614218268934236e-05  2.3646231809991938e-05  2.3667134909844600e-05  2.3675512706882229e-05  2.3670526286637861e-05  2.3651955676652971e-05  2.3620226397170069e-05  2.3576421486248500e-05  2.3522273638854607e-05  2.3460123653089513e-05  2.3392823384862817e-05  2.3323558475262756e-05  2.3255576627029884e-05  2.3191838292748120e-05  2.3134651486008403e-05  2.3085384684227710e-05  2.3044344643416251e-05  2.3010856153286214e-05  2.2983508803624609e-05  2.2960476470771899e-05  2.2939802070167036e-05  2.2919575742554240e-05  2.2897985751018133e-05  2.2873254550963528e-05  2.2843462983699360e-05  2.2806277023625137e-05  2.2758292319394393e-05  2.2694536481827224e-05  2.2603712379297154e-05  2.2471645546660607e-05  2.2224315559806146e-05  2.2004165050414306e-05  2.2129966649154948e-05  2.2413266521871122e-05  2.2741372554179145e-05  2.3086671992978849e-05  2.3431359109109260e-05  2.3759265519854026e-05  2.4057018424051008e-05  2.4316232365346900e-05  2.4533864286390361e-05  2.4711222641230045e-05  2.4852411004520919e-05  2.4962838394756993e-05  2.5048120647160849e-05  2.5113426491234918e-05  2.5163179153188666e-05  2.5200988589498152e-05  2.5229708464231333e-05  2.5251546110604576e-05  2.5268183920166361e-05  2.5280891565410734e-05  2.5290621017905316e-05  2.5298082976377147e-05  2.5303806371293202e-05  2.5308183687420704e-05  2.5311504941592698e-05  2.5313982827808382e-05  2.5315771082393913e-05  2.5316977659288117e-05  2.5317673886839287e-05  2.5317900412284610e-05  2.5465368206870075e-05  2.5454918981571437e-05  2.5423571744474024e-05  2.5370675269489847e-05  2.5295296619753835e-05  2.5196381335102771e-05  2.5073005597204888e-05  2.4924716268706972e-05  2.4751932992059293e-05  2.4556347219293157e-05  2.4341195141498243e-05  2.4111288177103637e-05  2.3873013374048928e-05  2.3634513917382084e-05  2.3406909198926768e-05  2.3209826837649147e-05  2.3072901040578496e-05  2.3000202348442825e-05  2.2963897669405063e-05  2.2951010654036265e-05  2.2955212447538778e-05  2.2970035669399639e-05  2.2991059177512114e-05  2.3014980834970250e-05  2.3039600997941241e-05  2.3063761552494754e-05  2.3087249596272342e-05  2.3110637241763677e-05  2.3135051347750709e-05  2.3161913996517242e-05  2.3192668326904202e-05  2.3228502886338686e-05  2.3270098730429020e-05  2.3317439289670751e-05  2.3369722290124872e-05  2.3425391318817960e-05  2.3482274655031919e-05  2.3537796477254737e-05  2.3589217096254470e-05  2.3633863069675951e-05  2.3669320695677032e-05  2.3693582048844965e-05  2.3705145904480274e-05  2.3703083299361874e-05  2.3687078950149809e-05  2.3657456974773686e-05  2.3615194035616909e-05  2.3561916022910011e-05  2.3499866080899045e-05  2.3431823231660165e-05  2.3360945940368079e-05  2.3290521857098156e-05  2.3223632354140996e-05  2.3162784804338988e-05  2.3109601900172039e-05  2.3064656773488101e-05  2.3027500899646578e-05  2.2996867691188138e-05  2.2970974603991510e-05  2.2947819628596387e-05  2.2925388004445439e-05  2.2901731860420563e-05  2.2874923202420606e-05  2.2842884718438686e-05  2.2803092589884644e-05  2.2751946893721672e-05  2.2684040078570696e-05  2.2587981519032814e-05  2.2447691193029502e-05  2.2195594137895854e-05  2.2005221670890801e-05  2.2146916128326664e-05  2.2432466564832184e-05  2.2760438447214847e-05  2.3104645346028553e-05  2.3447524683216756e-05  2.3773117075314911e-05  2.4068335257790903e-05  2.4325071159472170e-05  2.4540481619686778e-05  2.4715978966882419e-05  2.4855689467650742e-05  2.4964992217365897e-05  2.5049447738620441e-05  2.5114163305400917e-05  2.5163505360860563e-05  2.5201036330342067e-05  2.5229572455498069e-05  2.5251292789126988e-05  2.5267858958658772e-05  2.5280525711230121e-05  2.5290234464456537e-05  2.5297688553850213e-05  2.5303411833144808e-05  2.5307793325731994e-05  2.5311120714232083e-05  2.5313605134097558e-05  2.5315399285411318e-05  2.5316610424021930e-05  2.5317309389187401e-05  2.5317536484588499e-05  2.5212938432493886e-05  2.5202263197803521e-05  2.5169526097109923e-05  2.5114341607299740e-05  2.5036186575407822e-05  2.4934572863530127e-05  2.4809294840655297e-05  2.4660733592481609e-05  2.4490175113405331e-05  2.4300056507612731e-05  2.4094089173904507e-05  2.3877387826696642e-05  2.3656624748729063e-05  2.3440676201870762e-05  2.3244075793693658e-05  2.3091874391974756e-05  2.3001566823810835e-05  2.2955440975682405e-05  2.2934957643508056e-05  2.2933689991449951e-05  2.2944957630488463e-05  2.2963706431152846e-05  2.2986502100983156e-05  2.3010833624904944e-05  2.3035139283303057e-05  2.3058714161227495e-05  2.3081650567197913e-05  2.3104704317621092e-05  2.3129105004209214e-05  2.3156330866716027e-05  2.3187857069125753e-05  2.3224890362761299e-05  2.3268118909186627e-05  2.3317521922855331e-05  2.3372280560184225e-05  2.3430807996679839e-05  2.3490886961630827e-05  2.3549881255001824e-05  2.3604978630884073e-05  2.3653424987307995e-05  2.3692721559750646e-05  2.3720772951346568e-05  2.3735988068463977e-05  2.3737344226342163e-05  2.3724426502672218e-05  2.3697451767844309e-05  2.3657281680106361e-05  2.3605422284299344e-05  2.3543999910831554e-05  2.3475694421401713e-05  2.3403604430021410e-05  2.3331022255540439e-05  2.3261118678472157e-05  2.3196579619015649e-05  2.3139277326913644e-05  2.3090066044806740e-05  2.3048757517709557e-05  2.3014274351067773e-05  2.2984922153326907e-05  2.2958685923378690e-05  2.2933459865635276e-05  2.2907156978675975e-05  2.2877683935931687e-05  2.2842782341374490e-05  2.2799714419005711e-05  2.2744657629694839e-05  2.2671753401895931e-05  2.2569628576989755e-05  2.2420218145762859e-05  2.2167275484952087e-05  2.2009265130503217e-05  2.2165901019578038e-05  2.2453484804907885e-05  2.2781152344502699e-05  2.3124032193185337e-05  2.3464827095812626e-05  2.3787811709530860e-05  2.4080215517996769e-05  2.4334230820031285e-05  2.4547226070167534e-05  2.4720719016668582e-05  2.4858853339649361e-05  2.4966969690040773e-05  2.5050564190649104e-05  2.5114674537784360e-05  2.5163603853067829e-05  2.5200862133064601e-05  2.5229224725104260e-05  2.5250840052502949e-05  2.5267347458173551e-05  2.5279985826257412e-05  2.5289685476469194e-05  2.5297142093074512e-05  2.5302874324268458e-05  2.5307267696572964e-05  2.5310607572631048e-05  2.5313103566226317e-05  2.5314907387037044e-05  2.5316125646111462e-05  2.5316828761404900e-05  2.5317056774392183e-05  2.4915944071716210e-05  2.4905359552019739e-05  2.4872040238889056e-05  2.4815917913194237e-05  2.4736931421932852e-05  2.4635199528699786e-05  2.4511238961654493e-05  2.4366193501303129e-05  2.4202032910670662e-05  2.4021737296614308e-05  2.3829484647035000e-05  2.3630801304565648e-05  2.3433073810347443e-05  2.3248004513958368e-05  2.3095923882656917e-05  2.2996860077927096e-05  2.2943893593478012e-05  2.2918529465808392e-05  2.2913058727896307e-05  2.2921364148762061e-05  2.2937887271141725e-05  2.2959157032231177e