<?xml version="1.0"?>
<VTKFile type="UnstructuredGrid"  version="0.1"  >
<UnstructuredGrid>
<Piece  NumberOfPoints="10201" NumberOfCells="20000">
<Points>
<DataArray  type="Float64"  NumberOfComponents="3"  format="ascii">0 0 0  0.25 0 0  0.5 0 0  0.75 0 0  1 0 0  1.25 0 0  1.5 0 0  1.75 0 0  2 0 0  2.25 0 0  2.5 0 0  2.75 0 0  3 0 0  3.25 0 0  3.5 0 0  3.75 0 0  4 0 0  4.25 0 0  4.5 0 0  4.75 0 0  5 0 0  5.25 0 0  5.5 0 0  5.75 0 0  6 0 0  6.25 0 0  6.5 0 0  6.75 0 0  7 0 0  7.25 0 0  7.5 0 0  7.75 0 0  8 0 0  8.25 0 0  8.5 0 0  8.75 0 0  9 0 0  9.25 0 0  9.5 0 0  9.75 0 0  10 0 0  10.25 0 0  10.5 0 0  10.75 0 0  11 0 0  11.25 0 0  11.5 0 0  11.75 0 0  12 0 0  12.25 0 0  12.5 0 0  12.75 0 0  13 0 0  13.25 0 0  13.5 0 0  13.75 0 0  14 0 0  14.25 0 0  14.5 0 0  14.75 0 0  15 0 0  15.25 0 0  15.5 0 0  15.75 0 0  16 0 0  16.25 0 0  16.5 0 0  16.75 0 0  17 0 0  17.25 0 0  17.5 0 0  17.75 0 0  18 0 0  18.25 0 0  18.5 0 0  18.75 0 0  19 0 0  19.25 0 0  19.5 0 0  19.75 0 0  20 0 0  20.25 0 0  20.5 0 0  20.75 0 0  21 0 0  21.25 0 0  21.5 0 0  21.75 0 0  22 0 0  22.25 0 0  22.5 0 0  22.75 0 0  23 0 0  23.25 0 0  23.5 0 0  23.75 0 0  24 0 0  24.25 0 0  24.5 0 0  24.75 0 0  25 0 0  0 0.25 0  0.25 0.25 0  0.5 0.25 0  0.75 0.25 0  1 0.25 0  1.25 0.25 0  1.5 0.25 0  1.75 0.25 0  2 0.25 0  2.25 0.25 0  2.5 0.25 0  2.75 0.25 0  3 0.25 0  3.25 0.25 0  3.5 0.25 0  3.75 0.25 0  4 0.25 0  4.25 0.25 0  4.5 0.25 0  4.75 0.25 0  5 0.25 0  5.25 0.25 0  5.5 0.25 0  5.75 0.25 0  6 0.25 0  6.25 0.25 0  6.5 0.25 0  6.75 0.25 0  7 0.25 0  7.25 0.25 0  7.5 0.25 0  7.75 0.25 0  8 0.25 0  8.25 0.25 0  8.5 0.25 0  8.75 0.25 0  9 0.25 0  9.25 0.25 0  9.5 0.25 0  9.75 0.25 0  10 0.25 0  10.25 0.25 0  10.5 0.25 0  10.75 0.25 0  11 0.25 0  11.25 0.25 0  11.5 0.25 0  11.75 0.25 0  12 0.25 0  12.25 0.25 0  12.5 0.25 0  12.75 0.25 0  13 0.25 0  13.25 0.25 0  13.5 0.25 0  13.75 0.25 0  14 0.25 0  14.25 0.25 0  14.5 0.25 0  14.75 0.25 0  15 0.25 0  15.25 0.25 0  15.5 0.25 0  15.75 0.25 0  16 0.25 0  16.25 0.25 0  16.5 0.25 0  16.75 0.25 0  17 0.25 0  17.25 0.25 0  17.5 0.25 0  17.75 0.25 0  18 0.25 0  18.25 0.25 0  18.5 0.25 0  18.75 0.25 0  19 0.25 0  19.25 0.25 0  19.5 0.25 0  19.75 0.25 0  20 0.25 0  20.25 0.25 0  20.5 0.25 0  20.75 0.25 0  21 0.25 0  21.25 0.25 0  21.5 0.25 0  21.75 0.25 0  22 0.25 0  22.25 0.25 0  22.5 0.25 0  22.75 0.25 0  23 0.25 0  23.25 0.25 0  23.5 0.25 0  23.75 0.25 0  24 0.25 0  24.25 0.25 0  24.5 0.25 0  24.75 0.25 0  25 0.25 0  0 0.5 0  0.25 0.5 0  0.5 0.5 0  0.75 0.5 0  1 0.5 0  1.25 0.5 0  1.5 0.5 0  1.75 0.5 0  2 0.5 0  2.25 0.5 0  2.5 0.5 0  2.75 0.5 0  3 0.5 0  3.25 0.5 0  3.5 0.5 0  3.75 0.5 0  4 0.5 0  4.25 0.5 0  4.5 0.5 0  4.75 0.5 0  5 0.5 0  5.25 0.5 0  5.5 0.5 0  5.75 0.5 0  6 0.5 0  6.25 0.5 0  6.5 0.5 0  6.75 0.5 0  7 0.5 0  7.25 0.5 0  7.5 0.5 0  7.75 0.5 0  8 0.5 0  8.25 0.5 0  8.5 0.5 0  8.75 0.5 0  9 0.5 0  9.25 0.5 0  9.5 0.5 0  9.75 0.5 0  10 0.5 0  10.25 0.5 0  10.5 0.5 0  10.75 0.5 0  11 0.5 0  11.25 0.5 0  11.5 0.5 0  11.75 0.5 0  12 0.5 0  12.25 0.5 0  12.5 0.5 0  12.75 0.5 0  13 0.5 0  13.25 0.5 0  13.5 0.5 0  13.75 0.5 0  14 0.5 0  14.25 0.5 0  14.5 0.5 0  14.75 0.5 0  15 0.5 0  15.25 0.5 0  15.5 0.5 0  15.75 0.5 0  16 0.5 0  16.25 0.5 0  16.5 0.5 0  16.75 0.5 0  17 0.5 0  17.25 0.5 0  17.5 0.5 0  17.75 0.5 0  18 0.5 0  18.25 0.5 0  18.5 0.5 0  18.75 0.5 0  19 0.5 0  19.25 0.5 0  19.5 0.5 0  19.75 0.5 0  20 0.5 0  20.25 0.5 0  20.5 0.5 0  20.75 0.5 0  21 0.5 0  21.25 0.5 0  21.5 0.5 0  21.75 0.5 0  22 0.5 0  22.25 0.5 0  22.5 0.5 0  22.75 0.5 0  23 0.5 0  23.25 0.5 0  23.5 0.5 0  23.75 0.5 0  24 0.5 0  24.25 0.5 0  24.5 0.5 0  24.75 0.5 0  25 0.5 0  0 0.75 0  0.25 0.75 0  0.5 0.75 0  0.75 0.75 0  1 0.75 0  1.25 0.75 0  1.5 0.75 0  1.75 0.75 0  2 0.75 0  2.25 0.75 0  2.5 0.75 0  2.75 0.75 0  3 0.75 0  3.25 0.75 0  3.5 0.75 0  3.75 0.75 0  4 0.75 0  4.25 0.75 0  4.5 0.75 0  4.75 0.75 0  5 0.75 0  5.25 0.75 0  5.5 0.75 0  5.75 0.75 0  6 0.75 0  6.25 0.75 0  6.5 0.75 0  6.75 0.75 0  7 0.75 0  7.25 0.75 0  7.5 0.75 0  7.75 0.75 0  8 0.75 0  8.25 0.75 0  8.5 0.75 0  8.75 0.75 0  9 0.75 0  9.25 0.75 0  9.5 0.75 0  9.75 0.75 0  10 0.75 0  10.25 0.75 0  10.5 0.75 0  10.75 0.75 0  11 0.75 0  11.25 0.75 0  11.5 0.75 0  11.75 0.75 0  12 0.75 0  12.25 0.75 0  12.5 0.75 0  12.75 0.75 0  13 0.75 0  13.25 0.75 0  13.5 0.75 0  13.75 0.75 0  14 0.75 0  14.25 0.75 0  14.5 0.75 0  14.75 0.75 0  15 0.75 0  15.25 0.75 0  15.5 0.75 0  15.75 0.75 0  16 0.75 0  16.25 0.75 0  16.5 0.75 0  16.75 0.75 0  17 0.75 0  17.25 0.75 0  17.5 0.75 0  17.75 0.75 0  18 0.75 0  18.25 0.75 0  18.5 0.75 0  18.75 0.75 0  19 0.75 0  19.25 0.75 0  19.5 0.75 0  19.75 0.75 0  20 0.75 0  20.25 0.75 0  20.5 0.75 0  20.75 0.75 0  21 0.75 0  21.25 0.75 0  21.5 0.75 0  21.75 0.75 0  22 0.75 0  22.25 0.75 0  22.5 0.75 0  22.75 0.75 0  23 0.75 0  23.25 0.75 0  23.5 0.75 0  23.75 0.75 0  24 0.75 0  24.25 0.75 0  24.5 0.75 0  24.75 0.75 0  25 0.75 0  0 1 0  0.25 1 0  0.5 1 0  0.75 1 0  1 1 0  1.25 1 0  1.5 1 0  1.75 1 0  2 1 0  2.25 1 0  2.5 1 0  2.75 1 0  3 1 0  3.25 1 0  3.5 1 0  3.75 1 0  4 1 0  4.25 1 0  4.5 1 0  4.75 1 0  5 1 0  5.25 1 0  5.5 1 0  5.75 1 0  6 1 0  6.25 1 0  6.5 1 0  6.75 1 0  7 1 0  7.25 1 0  7.5 1 0  7.75 1 0  8 1 0  8.25 1 0  8.5 1 0  8.75 1 0  9 1 0  9.25 1 0  9.5 1 0  9.75 1 0  10 1 0  10.25 1 0  10.5 1 0  10.75 1 0  11 1 0  11.25 1 0  11.5 1 0  11.75 1 0  12 1 0  12.25 1 0  12.5 1 0  12.75 1 0  13 1 0  13.25 1 0  13.5 1 0  13.75 1 0  14 1 0  14.25 1 0  14.5 1 0  14.75 1 0  15 1 0  15.25 1 0  15.5 1 0  15.75 1 0  16 1 0  16.25 1 0  16.5 1 0  16.75 1 0  17 1 0  17.25 1 0  17.5 1 0  17.75 1 0  18 1 0  18.25 1 0  18.5 1 0  18.75 1 0  19 1 0  19.25 1 0  19.5 1 0  19.75 1 0  20 1 0  20.25 1 0  20.5 1 0  20.75 1 0  21 1 0  21.25 1 0  21.5 1 0  21.75 1 0  22 1 0  22.25 1 0  22.5 1 0  22.75 1 0  23 1 0  23.25 1 0  23.5 1 0  23.75 1 0  24 1 0  24.25 1 0  24.5 1 0  24.75 1 0  25 1 0  0 1.25 0  0.25 1.25 0  0.5 1.25 0  0.75 1.25 0  1 1.25 0  1.25 1.25 0  1.5 1.25 0  1.75 1.25 0  2 1.25 0  2.25 1.25 0  2.5 1.25 0  2.75 1.25 0  3 1.25 0  3.25 1.25 0  3.5 1.25 0  3.75 1.25 0  4 1.25 0  4.25 1.25 0  4.5 1.25 0  4.75 1.25 0  5 1.25 0  5.25 1.25 0  5.5 1.25 0  5.75 1.25 0  6 1.25 0  6.25 1.25 0  6.5 1.25 0  6.75 1.25 0  7 1.25 0  7.25 1.25 0  7.5 1.25 0  7.75 1.25 0  8 1.25 0  8.25 1.25 0  8.5 1.25 0  8.75 1.25 0  9 1.25 0  9.25 1.25 0  9.5 1.25 0  9.75 1.25 0  10 1.25 0  10.25 1.25 0  10.5 1.25 0  10.75 1.25 0  11 1.25 0  11.25 1.25 0  11.5 1.25 0  11.75 1.25 0  12 1.25 0  12.25 1.25 0  12.5 1.25 0  12.75 1.25 0  13 1.25 0  13.25 1.25 0  13.5 1.25 0  13.75 1.25 0  14 1.25 0  14.25 1.25 0  14.5 1.25 0  14.75 1.25 0  15 1.25 0  15.25 1.25 0  15.5 1.25 0  15.75 1.25 0  16 1.25 0  16.25 1.25 0  16.5 1.25 0  16.75 1.25 0  17 1.25 0  17.25 1.25 0  17.5 1.25 0  17.75 1.25 0  18 1.25 0  18.25 1.25 0  18.5 1.25 0  18.75 1.25 0  19 1.25 0  19.25 1.25 0  19.5 1.25 0  19.75 1.25 0  20 1.25 0  20.25 1.25 0  20.5 1.25 0  20.75 1.25 0  21 1.25 0  21.25 1.25 0  21.5 1.25 0  21.75 1.25 0  22 1.25 0  22.25 1.25 0  22.5 1.25 0  22.75 1.25 0  23 1.25 0  23.25 1.25 0  23.5 1.25 0  23.75 1.25 0  24 1.25 0  24.25 1.25 0  24.5 1.25 0  24.75 1.25 0  25 1.25 0  0 1.5 0  0.25 1.5 0  0.5 1.5 0  0.75 1.5 0  1 1.5 0  1.25 1.5 0  1.5 1.5 0  1.75 1.5 0  2 1.5 0  2.25 1.5 0  2.5 1.5 0  2.75 1.5 0  3 1.5 0  3.25 1.5 0  3.5 1.5 0  3.75 1.5 0  4 1.5 0  4.25 1.5 0  4.5 1.5 0  4.75 1.5 0  5 1.5 0  5.25 1.5 0  5.5 1.5 0  5.75 1.5 0  6 1.5 0  6.25 1.5 0  6.5 1.5 0  6.75 1.5 0  7 1.5 0  7.25 1.5 0  7.5 1.5 0  7.75 1.5 0  8 1.5 0  8.25 1.5 0  8.5 1.5 0  8.75 1.5 0  9 1.5 0  9.25 1.5 0  9.5 1.5 0  9.75 1.5 0  10 1.5 0  10.25 1.5 0  10.5 1.5 0  10.75 1.5 0  11 1.5 0  11.25 1.5 0  11.5 1.5 0  11.75 1.5 0  12 1.5 0  12.25 1.5 0  12.5 1.5 0  12.75 1.5 0  13 1.5 0  13.25 1.5 0  13.5 1.5 0  13.75 1.5 0  14 1.5 0  14.25 1.5 0  14.5 1.5 0  14.75 1.5 0  15 1.5 0  15.25 1.5 0  15.5 1.5 0  15.75 1.5 0  16 1.5 0  16.25 1.5 0  16.5 1.5 0  16.75 1.5 0  17 1.5 0  17.25 1.5 0  17.5 1.5 0  17.75 1.5 0  18 1.5 0  18.25 1.5 0  18.5 1.5 0  18.75 1.5 0  19 1.5 0  19.25 1.5 0  19.5 1.5 0  19.75 1.5 0  20 1.5 0  20.25 1.5 0  20.5 1.5 0  20.75 1.5 0  21 1.5 0  21.25 1.5 0  21.5 1.5 0  21.75 1.5 0  22 1.5 0  22.25 1.5 0  22.5 1.5 0  22.75 1.5 0  23 1.5 0  23.25 1.5 0  23.5 1.5 0  23.75 1.5 0  24 1.5 0  24.25 1.5 0  24.5 1.5 0  24.75 1.5 0  25 1.5 0  0 1.75 0  0.25 1.75 0  0.5 1.75 0  0.75 1.75 0  1 1.75 0  1.25 1.75 0  1.5 1.75 0  1.75 1.75 0  2 1.75 0  2.25 1.75 0  2.5 1.75 0  2.75 1.75 0  3 1.75 0  3.25 1.75 0  3.5 1.75 0  3.75 1.75 0  4 1.75 0  4.25 1.75 0  4.5 1.75 0  4.75 1.75 0  5 1.75 0  5.25 1.75 0  5.5 1.75 0  5.75 1.75 0  6 1.75 0  6.25 1.75 0  6.5 1.75 0  6.75 1.75 0  7 1.75 0  7.25 1.75 0  7.5 1.75 0  7.75 1.75 0  8 1.75 0  8.25 1.75 0  8.5 1.75 0  8.75 1.75 0  9 1.75 0  9.25 1.75 0  9.5 1.75 0  9.75 1.75 0  10 1.75 0  10.25 1.75 0  10.5 1.75 0  10.75 1.75 0  11 1.75 0  11.25 1.75 0  11.5 1.75 0  11.75 1.75 0  12 1.75 0  12.25 1.75 0  12.5 1.75 0  12.75 1.75 0  13 1.75 0  13.25 1.75 0  13.5 1.75 0  13.75 1.75 0  14 1.75 0  14.25 1.75 0  14.5 1.75 0  14.75 1.75 0  15 1.75 0  15.25 1.75 0  15.5 1.75 0  15.75 1.75 0  16 1.75 0  16.25 1.75 0  16.5 1.75 0  16.75 1.75 0  17 1.75 0  17.25 1.75 0  17.5 1.75 0  17.75 1.75 0  18 1.75 0  18.25 1.75 0  18.5 1.75 0  18.75 1.75 0  19 1.75 0  19.25 1.75 0  19.5 1.75 0  19.75 1.75 0  20 1.75 0  20.25 1.75 0  20.5 1.75 0  20.75 1.75 0  21 1.75 0  21.25 1.75 0  21.5 1.75 0  21.75 1.75 0  22 1.75 0  22.25 1.75 0  22.5 1.75 0  22.75 1.75 0  23 1.75 0  23.25 1.75 0  23.5 1.75 0  23.75 1.75 0  24 1.75 0  24.25 1.75 0  24.5 1.75 0  24.75 1.75 0  25 1.75 0  0 2 0  0.25 2 0  0.5 2 0  0.75 2 0  1 2 0  1.25 2 0  1.5 2 0  1.75 2 0  2 2 0  2.25 2 0  2.5 2 0  2.75 2 0  3 2 0  3.25 2 0  3.5 2 0  3.75 2 0  4 2 0  4.25 2 0  4.5 2 0  4.75 2 0  5 2 0  5.25 2 0  5.5 2 0  5.75 2 0  6 2 0  6.25 2 0  6.5 2 0  6.75 2 0  7 2 0  7.25 2 0  7.5 2 0  7.75 2 0  8 2 0  8.25 2 0  8.5 2 0  8.75 2 0  9 2 0  9.25 2 0  9.5 2 0  9.75 2 0  10 2 0  10.25 2 0  10.5 2 0  10.75 2 0  11 2 0  11.25 2 0 
[...]
<PointData  Scalars="f_26"> 
<DataArray  type="Float64"  Name="f_26"  format="ascii">2.2055899359811882e-05  2.2067486533159075e-05  2.2095379302312789e-05  2.2140096409787087e-05  2.2201171038405037e-05  2.2277597633752951e-05  2.2367925741214756e-05  2.2470292454976079e-05  2.2582465472627800e-05  2.2701918888079425e-05  2.2825947403810709e-05  2.2951811123155341e-05  2.3076892000221137e-05  2.3198838696967785e-05  2.3315679297164793e-05  2.3425889002357823e-05  2.3528409636533270e-05  2.3622626530363758e-05  2.3708314073574166e-05  2.3785563267277073e-05  2.3854703570107782e-05  2.3916228445206751e-05  2.3970730537380788e-05  2.4018849249672352e-05  2.4061231106528688e-05  2.4098501781810762e-05  2.4131247910861812e-05  2.4160006588085043e-05  2.4185260567365278e-05  2.4207437467015033e-05  2.4226911620949689e-05  2.4244007546714552e-05  2.4259004285848429e-05  2.4272140101739523e-05  2.4283617195841738e-05  2.4293606231997873e-05  2.4302250549720462e-05  2.4309670009457678e-05  2.4315964453765850e-05  2.4321216794062150e-05  2.4325495747924247e-05  2.4328858260169841e-05  2.4331351644618078e-05  2.4333015484172683e-05  2.4333883325777628e-05  2.4333984204582764e-05  2.4333344028741261e-05  2.4331986852871554e-05  2.4329936064450975e-05  2.4327215503274699e-05  2.4323850529562745e-05  2.4319869051247451e-05  2.4315302515332249e-05  2.4310186861904638e-05  2.4304563432383421e-05  2.4298479815936203e-05  2.4291990609891901e-05  2.4285158061726788e-05  2.4278052552340741e-05  2.4270752873582067e-05  2.4263346248229603e-05  2.4255928038940709e-05  2.4248601095107502e-05  2.4241474694126397e-05  2.4234663047011805e-05  2.4228283357862777e-05  2.4222453452084048e-05  2.4217289018370518e-05  2.4212900542364242e-05  2.4209390042889976e-05  2.4206847751481504e-05  2.4205348898961002e-05  2.4204950785710279e-05  2.4205690312197246e-05  2.4207582131637312e-05  2.4210617557234565e-05  2.4214764313848213e-05  2.4219967171452542e-05  2.4226149440094740e-05  2.4233215248752578e-05  2.4241052479238878e-05  2.4249536186142874e-05  2.4258532308460860e-05  2.4267901469960298e-05  2.4277502673350700e-05  2.4287196716036560e-05  2.4296849189171905e-05  2.4306332962615047e-05  2.4315530101662280e-05  2.4324333202950521e-05  2.4332646173286157e-05  2.4340384504011903e-05  2.4347475113448197e-05  2.4353855840069097e-05  2.4359474667965027e-05  2.4364288748612910e-05  2.4368263228977502e-05  2.4371369726516131e-05  2.4373583676176996e-05  2.4374877233026079e-05  2.4375192933620495e-05  2.2065395012427186e-05  2.2075016715319631e-05  2.2102322746828438e-05  2.2146730108857921e-05  2.2207522679961350e-05  2.2283632892400535e-05  2.2373595311056622e-05  2.2475547629329946e-05  2.2587265230744085e-05  2.2706233622112259e-05  2.2829760868186504e-05  2.2955121019204298e-05  2.3079709241394056e-05  2.3201185558562677e-05  2.3317586863351108e-05  2.3427394374256831e-05  2.3529553280151828e-05  2.3623450002336373e-05  2.3708858228916618e-05  2.3785866956645921e-05  2.3854802778031373e-05  2.3916155795864456e-05  2.3970515088809685e-05  2.4018516501673096e-05  2.4060803156612255e-05  2.4097997574451515e-05  2.4130683536612011e-05  2.4159395599858075e-05  2.4184614290802264e-05  2.4206765289939724e-05  2.4226221253340507e-05  2.4243305247422724e-05  2.4258295055644292e-05  2.4271427844424685e-05  2.4282904850391391e-05  2.4292895879247781e-05  2.4301543497204774e-05  2.4308966857811896e-05  2.4315265147769395e-05  2.4320520661006409e-05  2.4324801525625019e-05  2.4328164116645144e-05  2.4330655191252793e-05  2.4332313784106202e-05  2.4333172899284281e-05  2.4333261033362693e-05  2.4332603561288771e-05  2.4331224013417413e-05  2.4329145268354146e-05  2.4326390682128024e-05  2.4322985169625124e-05  2.4318956249061288e-05  2.4314335054458023e-05  2.4309157314526569e-05  2.4303464289031030e-05  2.4297303645652006e-05  2.4290730251798534e-05  2.4283806847080753e-05  2.4276604553823821e-05  2.4269203175854288e-05  2.4261691230798789e-05  2.4254165659417009e-05  2.4246731158198569e-05  2.4239499089628908e-05  2.4232585938922356e-05  2.4226111306889156e-05  2.4220195455528314e-05  2.4214956454686873e-05  2.4210507012601845e-05  2.4206951107452329e-05  2.4204380567716454e-05  2.4202871772427155e-05  2.4202482654838015e-05  2.4203250191752249e-05  2.4205188544256403e-05  2.4208287983860631e-05  2.4212514692905474e-05  2.4217811473120496e-05  2.4224099336389755e-05  2.4231279892889656e-05  2.4239238399675861e-05  2.4247847292630724e-05  2.4256970000124710e-05  2.4266464829564204e-05  2.4276188727886962e-05  2.4286000741807841e-05  2.4295765039532027e-05  2.4305353398226575e-05  2.4314647106102099e-05  2.4323538270278560e-05  2.4331930558346360e-05  2.4339739430436049e-05  2.4346891938506252e-05  2.4353326180128116e-05  2.4358990495415396e-05  2.4363842488186880e-05  2.4367847937796193e-05  2.4370979663252544e-05  2.4373216523423003e-05  2.4374543694354062e-05  2.4374961205077650e-05  2.2087186428299668e-05  2.2096233193586619e-05  2.2122947320313152e-05  2.2166743722587507e-05  2.2226827899900772e-05  2.2302087356487133e-05  2.2391039873103598e-05  2.2491825181293351e-05  2.2602234642951883e-05  2.2719781046387353e-05  2.2841808597510980e-05  2.2965633046892546e-05  2.3088692748891291e-05  2.3208688262787798e-05  2.3323690922206109e-05  2.3432208069662145e-05  2.3533201861322145e-05  2.3626066914526780e-05  2.3710577596647846e-05  2.3786817776382560e-05  2.3855104912444940e-05  2.3915917606416205e-05  2.3969832404193226e-05  2.4017472575937537e-05  2.4059469290813490e-05  2.4096434129365965e-05  2.4128941128848051e-05  2.4157516335622742e-05  2.4182632943676495e-05  2.4204710369124764e-05  2.4224115937546544e-05  2.4241168178723657e-05  2.4256140999405432e-05  2.4269268227862194e-05  2.4280748195135213e-05  2.4290748143756483e-05  2.4299408343974569e-05  2.4306845858702509e-05  2.4313157938890881e-05  2.4318425056772254e-05  2.4322713599966029e-05  2.4326078258108788e-05  2.4328564137843222e-05  2.4330208643274555e-05  2.4331043158452230e-05  2.4331094566728019e-05  2.4330386639372536e-05  2.4328941322799122e-05  2.4326779950211198e-05  2.4323924399427306e-05  2.4320398213955321e-05  2.4316227698957402e-05  2.4311442997436031e-05  2.4306079144670625e-05  2.4300177090602017e-05  2.4293784670570327e-05  2.4286957494797419e-05  2.4279759716720701e-05  2.4272264630433026e-05  2.4264555039029654e-05  2.4256723329807759e-05  2.4248871190363365e-05  2.4241108903062824e-05  2.4233554165341399e-05  2.4226330400613906e-05  2.4219564549452471e-05  2.4213384362428173e-05  2.4207915252980064e-05  2.4203276808216795e-05  2.4199579094150013e-05  2.4196918925399905e-05  2.4195376293654146e-05  2.4195011160258225e-05  2.4195860813410493e-05  2.4197937968187748e-05  2.4201229748592551e-05  2.4205697637586425e-05  2.4211278418133931e-05  2.4217886061535028e-05  2.4225414455370688e-05  2.4233740808652666e-05  2.4242729531609472e-05  2.4252236365511427e-05  2.4262112535348559e-05  2.4272208714014107e-05  2.4282378617875437e-05  2.4292482095752300e-05  2.4302387621197467e-05  2.4311974146481852e-05  2.4321132321429567e-05  2.4329765117970252e-05  2.4337787930053703e-05  2.4345128237807920e-05  2.4351724935153114e-05  2.4357527423457800e-05  2.4362494574425828e-05  2.4366593673381820e-05  2.4369799497369729e-05  2.4372093836533321e-05  2.4373466187313530e-05  2.4373916931718384e-05  2.2122203342634996e-05  2.2130955293420059e-05  2.2157064877629705e-05  2.2200011975993291e-05  2.2258993099709804e-05  2.2332878263410151e-05  2.2420179411573131e-05  2.2519046908046504e-05  2.2627300093093162e-05  2.2742496572186457e-05  2.2862039735146277e-05  2.2983314039041184e-05  2.3103829580637802e-05  2.3221354882797824e-05  2.3334019631099403e-05  2.3440375984299049e-05  2.3539415723958096e-05  2.3630548331549073e-05  2.3713550240198912e-05  2.3788497395802555e-05  2.3855692375834889e-05  2.3915594736324673e-05  2.3968760112562178e-05  2.4015790713095036e-05  2.4057297648749198e-05  2.4093874128009879e-05  2.4126077824867426e-05  2.4154420500551754e-05  2.4179363048922248e-05  2.4201314385293343e-05  2.4220632905454650e-05  2.4237629542620913e-05  2.4252571713196327e-05  2.4265687656098011e-05  2.4277170835230434e-05  2.4287184196557532e-05  2.4295864158130864e-05  2.4303324271416977e-05  2.4309658532337501e-05  2.4314944346268058e-05  2.4319245167192288e-05  2.4322612840478047e-05  2.4325089683605724e-05  2.4326710341187158e-05  2.4327503450789195e-05  2.4327493155053350e-05  2.4326700493741863e-05  2.4325144706804301e-05  2.4322844476370727e-05  2.4319819131659761e-05  2.4316089835994806e-05  2.4311680769261098e-05  2.4306620312013460e-05  2.4300942228899810e-05  2.4294686839025706e-05  2.4287902149434085e-05  2.4280644915318304e-05  2.4272981577526675e-05  2.4264989015294199e-05  2.4256755041249229e-05  2.4248378558196020e-05  2.4239969294771315e-05  2.4231647041615917e-05  2.4223540322724326e-05  2.4215784459090071e-05  2.4208519013705507e-05  2.4201884647302604e-05  2.4196019460539429e-05  2.4191054946990801e-05  2.4187111727618752e-05  2.4184295276137208e-05  2.4182691870653081e-05  2.4182365015729891e-05  2.4183352567617529e-05  2.4185664762919959e-05  2.4189283298949317e-05  2.4194161546419541e-05  2.4200225898078132e-05  2.4207378177918577e-05  2.4215498962796249e-05  2.4224451609003469e-05  2.4234086736399220e-05  2.4244246905336905e-05  2.4254771227350210e-05  2.4265499677051016e-05  2.4276276915442131e-05  2.4286955487939357e-05  2.4297398317494478e-05  2.4307480468457544e-05  2.4317090205532999e-05  2.4326129411265948e-05  2.4334513453521265e-05  2.4342170611537700e-05  2.4349041176865344e-05  2.4355076346613849e-05  2.4360237025281764e-05  2.4364492654682710e-05  2.4367820208323791e-05  2.4370203519723161e-05  2.4371633102623801e-05  2.4372106209670612e-05  2.2170639823179979e-05  2.2179124144250414e-05  2.2204533776203474e-05  2.2246380704687261e-05  2.2303864832483811e-05  2.2375852970234502e-05  2.2460862546655511e-05  2.2557065941999021e-05  2.2662324865466130e-05  2.2774260532802288e-05  2.2890358484412713e-05  2.3008097615166785e-05  2.3125086199864883e-05  2.3239185648698704e-05  2.3348605474873551e-05  2.3451959339210783e-05  2.3548279938298185e-05  2.3636997605905746e-05  2.3717892160984931e-05  2.3791029230717266e-05  2.3856691457833160e-05  2.3915312642757112e-05  2.3967419987281778e-05  2.4013586947250387e-05  2.4054397162426330e-05  2.4090418609595085e-05  2.4122186432707814e-05  2.4150192676502639e-05  2.4174881217142404e-05  2.4196646405730354e-05  2.4215834220553314e-05  2.4232745001997418e-05  2.4247637089486245e-05  2.4260730880788598e-05  2.4272212990103098e-05  2.4282240297542155e-05  2.4290943766210323e-05  2.4298431961332599e-05  2.4304794245329393e-05  2.4310103648658517e-05  2.4314419432742781e-05  2.4317789371396981e-05  2.4320251783007456e-05  2.4321837348768431e-05  2.4322570753500308e-05  2.4322472185550478e-05  2.4321558731319274e-05  2.4319845698176543e-05  2.4317347896901247e-05  2.4314080911138532e-05  2.4310062376491856e-05  2.4305313285465270e-05  2.4299859326244144e-05  2.4293732252996935e-05  2.4286971272860229e-05  2.4279624420110838e-05  2.4271749871623287e-05  2.4263417140365193e-05  2.4254708066691104e-05  2.4245717512361089e-05  2.4236553651779861e-05  2.4227337751443872e-05  2.4218203334493964e-05  2.4209294644680007e-05  2.4200764354157410e-05  2.4192770502240608e-05  2.4185472705763980e-05  2.4179027742473486e-05  2.4173584671648831e-05  2.4169279714450470e-05  2.4166231163277778e-05  2.4164534618057599e-05  2.4164258852536971e-05  2.4165442592240333e-05  2.4168092437582446e-05  2.4172182093732662e-05  2.4177652979328200e-05  2.4184416187651864e-05  2.4192355676507908e-05  2.4201332476963344e-05  2.4211189645283180e-05  2.4221757643105206e-05  2.4232859821041664e-05  2.4244317699572725e-05  2.4255955784007462e-05  2.4267605710604591e-05  2.4279109590549915e-05  2.4290322489278574e-05  2.4301114043644171e-05  2.4311369273610542e-05  2.4320988685637857e-05  2.4329887791073377e-05  2.4337996175765830e-05  2.4345256259251972e-05  2.4351621876495592e-05  2.4357056805897894e-05  2.4361533357149556e-05  2.4365031120965229e-05  2.4367535956777703e-05  2.4369039206740488e-05  2.4369536872798507e-05  2.2232386596924487e-05  2.2240565164232342e-05  2.2265128983340862e-05  2.2305600812954720e-05  2.2361183739321709e-05  2.2430748963693873e-05  2.2512829645215169e-05  2.2605632807315644e-05  2.2707078444611149e-05  2.2814870835962811e-05  2.2926599957468702e-05  2.3039862905235863e-05  2.3152389695611576e-05  2.3262156302983115e-05  2.3367470450749078e-05  2.3467021462256120e-05  2.3559892517578892e-05  2.3645539926840177e-05  2.3723748115583184e-05  2.3794570484128398e-05  2.3858265556878676e-05  2.3915235731673009e-05  2.3965973360666693e-05  2.4011016503409368e-05  2.4050914843793557e-05  2.4086205048647322e-05  2.4117394196065448e-05  2.4144949673551683e-05  2.4169293989416014e-05  2.4190803130873215e-05  2.4209807350130958e-05  2.4226593510205390e-05  2.4241408345901842e-05  2.4254462180473352e-05  2.4265932783517577e-05  2.4275969164719385e-05  2.4284695177298610e-05  2.4292212860989096e-05  2.4298605492919157e-05  2.4303940340724863e-05  2.4308271129371519e-05  2.4311640244278087e-05  2.4314080700423772e-05  2.4315617911520738e-05  2.4316271295939095e-05  2.4316055757388546e-05  2.4314983078647538e-05  2.4313063265933297e-05  2.4310305879709798e-05  2.4306721384586727e-05  2.4302322546113796e-05  2.4297125895288817e-05  2.4291153272015622e-05  2.4284433446158570e-05  2.4277003798985952e-05  2.4268912028704625e-05  2.4260217821933296e-05  2.4250994409407546e-05  2.4241329900733691e-05  2.4231328272140677e-05  2.4221109866113417e-05  2.4210811256130910e-05  2.4200584337054372e-05  2.4190594524965117e-05  2.4181017991081042e-05  2.4172037912463386e-05  2.4163839794810636e-05  2.4156606004396651e-05  2.4150509729527085e-05  2.4145708667582021e-05  2.4142338792151546e-05  2.4140508587193968e-05  2.4140294135008907e-05  2.4141735408928454e-05  2.4144834050906049e-05  2.4149552813876766e-05  2.4155816728087482e-05  2.4163515921745049e-05  2.4172509902977251e-05  2.4182633005546722e-05  2.4193700626027816e-05  2.4205515842370219e-05  2.4217876005134729e-05  2.4230578930309559e-05  2.4243428389240200e-05  2.4256238676634368e-05  2.4268838130523482e-05  2.4281071567858031e-05  2.4292801677599786e-05  2.4303909474233473e-05  2.4314293956198072e-05  2.4323871136282844e-05  2.4332572617092865e-05  2.4340343878054966e-05  2.4347142425287136e-05  2.4352935935703146e-05  2.4357700504122967e-05  2.4361419075701464e-05  2.4364080108369556e-05  2.4365676447398389e-05  2.4366204305634222e-05  2.2307084217138846e-05  2.2314899558874669e-05  2.2338447090599347e-05  2.2377252443224425e-05  2.2430522776750763e-05  2.2497140626548992e-05  2.2575665628089766e-05  2.2664353426082313e-05  2.2761199341349845e-05  2.2864010191095214e-05  2.2970501257794700e-05  2.3078408882690992e-05  2.3185604796981548e-05  2.3290197330294509e-05  2.3390607181505044e-05  2.3485610582674661e-05  2.3574348795895414e-05  2.3656308250958147e-05  2.3731279099786075e-05  2.3799301186046589e-05  2.3860605760085605e-05  2.3915559434118974e-05  2.3964614623361239e-05  2.4008268620567760e-05  2.4047031812810045e-05  2.4081404457652637e-05  2.4111860836756455e-05  2.4138839379320958e-05  2.4162737367078153e-05  2.4183908987934695e-05  2.4202665717913588e-05  2.4219278230608301e-05  2.4233979232431561e-05  2.4246966788670846e-05  2.4258407837517505e-05  2.4268441689736830e-05  2.4277183385631460e-05  2.4284726834027281e-05  2.4291147695337865e-05  2.4296505996655172e-05  2.4300848484655519e-05  2.4304210734424031e-05  2.4306619040885400e-05  2.4308092125603968e-05  2.4308642696058030e-05  2.4308278897540569e-05  2.4307005699769639e-05  2.4304826261073250e-05  2.4301743312430755e-05  2.4297760601326044e-05  2.4292884430771645e-05  2.4287125321356096e-05  2.4280499813051147e-05  2.4273032408131472e-05  2.4264757636433652e-05  2.4255722199218201e-05  2.4245987118614935e-05  2.4235629787392932e-05  2.4224745781011898e-05  2.4213450264117695e-05  2.4201878801395462e-05  2.4190187373194862e-05  2.4178551404798846e-05  2.4167163648918223e-05  2.4156230816311960e-05  2.4145968928789517e-05  2.4136597468087226e-05  2.4128332505340885e-05  2.4121379108026999e-05  2.4115923421261530e-05  2.4112124894911493e-05  2.4110109165457362e-05  2.4109962093827921e-05  2.4111725404345523e-05  2.4115394268045514e-05  2.4120917034344395e-05  2.4128197151772196e-05  2.4137097148293637e-05  2.4147444383146184e-05  2.4159038152626207e-05  2.4171657645791404e-05  2.4185070210852248e-05  2.4199039410387659e-05  2.4213332407754361e-05  2.4227726326727828e-05  2.4242013346545117e-05  2.4256004419302682e-05  2.4269531611983778e-05  2.4282449170727924e-05  2.4294633474304698e-05  2.4305982085598783e-05  2.4316412126430912e-05  2.4325858196890585e-05  2.4334270041364220e-05  2.4341610135405750e-05  2.4347851335321147e-05  2.4352974698869576e-05  2.4356967551570803e-05  2.4359821837510428e-05  2.4361532756525672e-05  2.4362097664729566e-05  2.2394087183066433e-05  2.2401477098062674e-05  2.2423829736226380e-05  2.2460673274685781e-05  2.2511223397174323e-05  2.2574382876433277e-05  2.2648750364511307e-05  2.2732645667182373e-05  2.2824157129156573e-05  2.2921212849017863e-05  2.3021672077209950e-05  2.3123428005582008e-05  2.3224509867596179e-05  2.3323171794205543e-05  2.3417958278981719e-05  2.3507740580022387e-05  2.3591723551065649e-05  2.3669426864342071e-05  2.3740647442969588e-05  2.3805410902919183e-05  2.3863919216368060e-05  2.3916500246547791e-05  2.3963562889349536e-05  2.4005559758683644e-05  2.4042957932664914e-05  2.4076217316099077e-05  2.4105775632156071e-05  2.4132038836653652e-05  2.4155375745202847e-05  2.4176115784175542e-05  2.4194548952602182e-05  2.4210927269119782e-05  2.4225467150718027e-05  2.4238352316705694e-05  2.4249736929107395e-05  2.4259748771474385e-05  2.4268492335928820e-05  2.4276051737843813e-05  2.4282493413309921e-05  2.4287868580204234e-05  2.4292215462227193e-05  2.4295561288923655e-05  2.4297924095036147e-05  2.4299314350609923e-05  2.4299736459739667e-05  2.4299190171061467e-05  2.4297671947143439e-05  2.4295176342686547e-05  2.4291697442577220e-05  2.4287230409791306e-05  2.4281773189185335e-05  2.4275328405397827e-05  2.4267905480374230e-05  2.4259522977386504e-05  2.4250211153008520e-05  2.4240014665982924e-05  2.4228995352754942e-05  2.4217234935337225e-05  2.4204837481315844e-05  2.4191931393110121e-05  2.4178670670530452e-05  2.4165235174768738e-05  2.4151829630824661e-05  2.4138681145352776e-05  2.4126035091477659e-05  2.4114149320390701e-05  2.4103286795327968e-05  2.4093706895243060e-05  2.4085655787100293e-05  2.4079356398716187e-05  2.4074998620132645e-05  2.4072730405251573e-05  2.4072650426964230e-05  2.4074802855453526e-05  2.4079174685756780e-05  2.4085695849641231e-05  2.4094242127317104e-05  2.4104640649761341e-05  2.4116677577252197e-05  2.4130107377171490e-05  2.4144663022129713e-05  2.4160066397916525e-05  2.4176038249908107e-05  2.4192307096980774e-05  2.4208616686540286e-05  2.4224731731388007e-05  2.4240441836720444e-05  2.4255563674650661e-05  2.4269941580990966e-05  2.4283446828137409e-05  2.4295975868600240e-05  2.4307447850807481e-05  2.4317801690020288e-05  2.4326992941319011e-05  2.4334990676871600e-05  2.4341774522685404e-05  2.4347331965244674e-05  2.4351655998283222e-05  2.4354743145794164e-05  2.4356591871955081e-05  2.4357201379896317e-05  2.2492412684290936e-05  2.2499317665183820e-05  2.2520301294137020e-05  2.2554898198433878e-05  2.2602340341244104e-05  2.2661562216832929e-05  2.2731216071868175e-05  2.2809702570345591e-05  2.2895220631826516e-05  2.2985836753953203e-05  2.3079569814511687e-05  2.3174483416007947e-05  2.3268775492768385e-05  2.3360854853182016e-05  2.3449396563035697e-05  2.3533371877719092e-05  2.3612052685291141e-05  2.3684994041523389e-05  2.3752000659164396e-05  2.3813083974329403e-05  2.3868415904789066e-05  2.3918284116533570e