<?xml version="1.0"?>
<VTKFile type="UnstructuredGrid"  version="0.1"  >
<UnstructuredGrid>
<Piece  NumberOfPoints="10201" NumberOfCells="20000">
<Points>
<DataArray  type="Float64"  NumberOfComponents="3"  format="ascii">0 0 0  0.25 0 0  0.5 0 0  0.75 0 0  1 0 0  1.25 0 0  1.5 0 0  1.75 0 0  2 0 0  2.25 0 0  2.5 0 0  2.75 0 0  3 0 0  3.25 0 0  3.5 0 0  3.75 0 0  4 0 0  4.25 0 0  4.5 0 0  4.75 0 0  5 0 0  5.25 0 0  5.5 0 0  5.75 0 0  6 0 0  6.25 0 0  6.5 0 0  6.75 0 0  7 0 0  7.25 0 0  7.5 0 0  7.75 0 0  8 0 0  8.25 0 0  8.5 0 0  8.75 0 0  9 0 0  9.25 0 0  9.5 0 0  9.75 0 0  10 0 0  10.25 0 0  10.5 0 0  10.75 0 0  11 0 0  11.25 0 0  11.5 0 0  11.75 0 0  12 0 0  12.25 0 0  12.5 0 0  12.75 0 0  13 0 0  13.25 0 0  13.5 0 0  13.75 0 0  14 0 0  14.25 0 0  14.5 0 0  14.75 0 0  15 0 0  15.25 0 0  15.5 0 0  15.75 0 0  16 0 0  16.25 0 0  16.5 0 0  16.75 0 0  17 0 0  17.25 0 0  17.5 0 0  17.75 0 0  18 0 0  18.25 0 0  18.5 0 0  18.75 0 0  19 0 0  19.25 0 0  19.5 0 0  19.75 0 0  20 0 0  20.25 0 0  20.5 0 0  20.75 0 0  21 0 0  21.25 0 0  21.5 0 0  21.75 0 0  22 0 0  22.25 0 0  22.5 0 0  22.75 0 0  23 0 0  23.25 0 0  23.5 0 0  23.75 0 0  24 0 0  24.25 0 0  24.5 0 0  24.75 0 0  25 0 0  0 0.25 0  0.25 0.25 0  0.5 0.25 0  0.75 0.25 0  1 0.25 0  1.25 0.25 0  1.5 0.25 0  1.75 0.25 0  2 0.25 0  2.25 0.25 0  2.5 0.25 0  2.75 0.25 0  3 0.25 0  3.25 0.25 0  3.5 0.25 0  3.75 0.25 0  4 0.25 0  4.25 0.25 0  4.5 0.25 0  4.75 0.25 0  5 0.25 0  5.25 0.25 0  5.5 0.25 0  5.75 0.25 0  6 0.25 0  6.25 0.25 0  6.5 0.25 0  6.75 0.25 0  7 0.25 0  7.25 0.25 0  7.5 0.25 0  7.75 0.25 0  8 0.25 0  8.25 0.25 0  8.5 0.25 0  8.75 0.25 0  9 0.25 0  9.25 0.25 0  9.5 0.25 0  9.75 0.25 0  10 0.25 0  10.25 0.25 0  10.5 0.25 0  10.75 0.25 0  11 0.25 0  11.25 0.25 0  11.5 0.25 0  11.75 0.25 0  12 0.25 0  12.25 0.25 0  12.5 0.25 0  12.75 0.25 0  13 0.25 0  13.25 0.25 0  13.5 0.25 0  13.75 0.25 0  14 0.25 0  14.25 0.25 0  14.5 0.25 0  14.75 0.25 0  15 0.25 0  15.25 0.25 0  15.5 0.25 0  15.75 0.25 0  16 0.25 0  16.25 0.25 0  16.5 0.25 0  16.75 0.25 0  17 0.25 0  17.25 0.25 0  17.5 0.25 0  17.75 0.25 0  18 0.25 0  18.25 0.25 0  18.5 0.25 0  18.75 0.25 0  19 0.25 0  19.25 0.25 0  19.5 0.25 0  19.75 0.25 0  20 0.25 0  20.25 0.25 0  20.5 0.25 0  20.75 0.25 0  21 0.25 0  21.25 0.25 0  21.5 0.25 0  21.75 0.25 0  22 0.25 0  22.25 0.25 0  22.5 0.25 0  22.75 0.25 0  23 0.25 0  23.25 0.25 0  23.5 0.25 0  23.75 0.25 0  24 0.25 0  24.25 0.25 0  24.5 0.25 0  24.75 0.25 0  25 0.25 0  0 0.5 0  0.25 0.5 0  0.5 0.5 0  0.75 0.5 0  1 0.5 0  1.25 0.5 0  1.5 0.5 0  1.75 0.5 0  2 0.5 0  2.25 0.5 0  2.5 0.5 0  2.75 0.5 0  3 0.5 0  3.25 0.5 0  3.5 0.5 0  3.75 0.5 0  4 0.5 0  4.25 0.5 0  4.5 0.5 0  4.75 0.5 0  5 0.5 0  5.25 0.5 0  5.5 0.5 0  5.75 0.5 0  6 0.5 0  6.25 0.5 0  6.5 0.5 0  6.75 0.5 0  7 0.5 0  7.25 0.5 0  7.5 0.5 0  7.75 0.5 0  8 0.5 0  8.25 0.5 0  8.5 0.5 0  8.75 0.5 0  9 0.5 0  9.25 0.5 0  9.5 0.5 0  9.75 0.5 0  10 0.5 0  10.25 0.5 0  10.5 0.5 0  10.75 0.5 0  11 0.5 0  11.25 0.5 0  11.5 0.5 0  11.75 0.5 0  12 0.5 0  12.25 0.5 0  12.5 0.5 0  12.75 0.5 0  13 0.5 0  13.25 0.5 0  13.5 0.5 0  13.75 0.5 0  14 0.5 0  14.25 0.5 0  14.5 0.5 0  14.75 0.5 0  15 0.5 0  15.25 0.5 0  15.5 0.5 0  15.75 0.5 0  16 0.5 0  16.25 0.5 0  16.5 0.5 0  16.75 0.5 0  17 0.5 0  17.25 0.5 0  17.5 0.5 0  17.75 0.5 0  18 0.5 0  18.25 0.5 0  18.5 0.5 0  18.75 0.5 0  19 0.5 0  19.25 0.5 0  19.5 0.5 0  19.75 0.5 0  20 0.5 0  20.25 0.5 0  20.5 0.5 0  20.75 0.5 0  21 0.5 0  21.25 0.5 0  21.5 0.5 0  21.75 0.5 0  22 0.5 0  22.25 0.5 0  22.5 0.5 0  22.75 0.5 0  23 0.5 0  23.25 0.5 0  23.5 0.5 0  23.75 0.5 0  24 0.5 0  24.25 0.5 0  24.5 0.5 0  24.75 0.5 0  25 0.5 0  0 0.75 0  0.25 0.75 0  0.5 0.75 0  0.75 0.75 0  1 0.75 0  1.25 0.75 0  1.5 0.75 0  1.75 0.75 0  2 0.75 0  2.25 0.75 0  2.5 0.75 0  2.75 0.75 0  3 0.75 0  3.25 0.75 0  3.5 0.75 0  3.75 0.75 0  4 0.75 0  4.25 0.75 0  4.5 0.75 0  4.75 0.75 0  5 0.75 0  5.25 0.75 0  5.5 0.75 0  5.75 0.75 0  6 0.75 0  6.25 0.75 0  6.5 0.75 0  6.75 0.75 0  7 0.75 0  7.25 0.75 0  7.5 0.75 0  7.75 0.75 0  8 0.75 0  8.25 0.75 0  8.5 0.75 0  8.75 0.75 0  9 0.75 0  9.25 0.75 0  9.5 0.75 0  9.75 0.75 0  10 0.75 0  10.25 0.75 0  10.5 0.75 0  10.75 0.75 0  11 0.75 0  11.25 0.75 0  11.5 0.75 0  11.75 0.75 0  12 0.75 0  12.25 0.75 0  12.5 0.75 0  12.75 0.75 0  13 0.75 0  13.25 0.75 0  13.5 0.75 0  13.75 0.75 0  14 0.75 0  14.25 0.75 0  14.5 0.75 0  14.75 0.75 0  15 0.75 0  15.25 0.75 0  15.5 0.75 0  15.75 0.75 0  16 0.75 0  16.25 0.75 0  16.5 0.75 0  16.75 0.75 0  17 0.75 0  17.25 0.75 0  17.5 0.75 0  17.75 0.75 0  18 0.75 0  18.25 0.75 0  18.5 0.75 0  18.75 0.75 0  19 0.75 0  19.25 0.75 0  19.5 0.75 0  19.75 0.75 0  20 0.75 0  20.25 0.75 0  20.5 0.75 0  20.75 0.75 0  21 0.75 0  21.25 0.75 0  21.5 0.75 0  21.75 0.75 0  22 0.75 0  22.25 0.75 0  22.5 0.75 0  22.75 0.75 0  23 0.75 0  23.25 0.75 0  23.5 0.75 0  23.75 0.75 0  24 0.75 0  24.25 0.75 0  24.5 0.75 0  24.75 0.75 0  25 0.75 0  0 1 0  0.25 1 0  0.5 1 0  0.75 1 0  1 1 0  1.25 1 0  1.5 1 0  1.75 1 0  2 1 0  2.25 1 0  2.5 1 0  2.75 1 0  3 1 0  3.25 1 0  3.5 1 0  3.75 1 0  4 1 0  4.25 1 0  4.5 1 0  4.75 1 0  5 1 0  5.25 1 0  5.5 1 0  5.75 1 0  6 1 0  6.25 1 0  6.5 1 0  6.75 1 0  7 1 0  7.25 1 0  7.5 1 0  7.75 1 0  8 1 0  8.25 1 0  8.5 1 0  8.75 1 0  9 1 0  9.25 1 0  9.5 1 0  9.75 1 0  10 1 0  10.25 1 0  10.5 1 0  10.75 1 0  11 1 0  11.25 1 0  11.5 1 0  11.75 1 0  12 1 0  12.25 1 0  12.5 1 0  12.75 1 0  13 1 0  13.25 1 0  13.5 1 0  13.75 1 0  14 1 0  14.25 1 0  14.5 1 0  14.75 1 0  15 1 0  15.25 1 0  15.5 1 0  15.75 1 0  16 1 0  16.25 1 0  16.5 1 0  16.75 1 0  17 1 0  17.25 1 0  17.5 1 0  17.75 1 0  18 1 0  18.25 1 0  18.5 1 0  18.75 1 0  19 1 0  19.25 1 0  19.5 1 0  19.75 1 0  20 1 0  20.25 1 0  20.5 1 0  20.75 1 0  21 1 0  21.25 1 0  21.5 1 0  21.75 1 0  22 1 0  22.25 1 0  22.5 1 0  22.75 1 0  23 1 0  23.25 1 0  23.5 1 0  23.75 1 0  24 1 0  24.25 1 0  24.5 1 0  24.75 1 0  25 1 0  0 1.25 0  0.25 1.25 0  0.5 1.25 0  0.75 1.25 0  1 1.25 0  1.25 1.25 0  1.5 1.25 0  1.75 1.25 0  2 1.25 0  2.25 1.25 0  2.5 1.25 0  2.75 1.25 0  3 1.25 0  3.25 1.25 0  3.5 1.25 0  3.75 1.25 0  4 1.25 0  4.25 1.25 0  4.5 1.25 0  4.75 1.25 0  5 1.25 0  5.25 1.25 0  5.5 1.25 0  5.75 1.25 0  6 1.25 0  6.25 1.25 0  6.5 1.25 0  6.75 1.25 0  7 1.25 0  7.25 1.25 0  7.5 1.25 0  7.75 1.25 0  8 1.25 0  8.25 1.25 0  8.5 1.25 0  8.75 1.25 0  9 1.25 0  9.25 1.25 0  9.5 1.25 0  9.75 1.25 0  10 1.25 0  10.25 1.25 0  10.5 1.25 0  10.75 1.25 0  11 1.25 0  11.25 1.25 0  11.5 1.25 0  11.75 1.25 0  12 1.25 0  12.25 1.25 0  12.5 1.25 0  12.75 1.25 0  13 1.25 0  13.25 1.25 0  13.5 1.25 0  13.75 1.25 0  14 1.25 0  14.25 1.25 0  14.5 1.25 0  14.75 1.25 0  15 1.25 0  15.25 1.25 0  15.5 1.25 0  15.75 1.25 0  16 1.25 0  16.25 1.25 0  16.5 1.25 0  16.75 1.25 0  17 1.25 0  17.25 1.25 0  17.5 1.25 0  17.75 1.25 0  18 1.25 0  18.25 1.25 0  18.5 1.25 0  18.75 1.25 0  19 1.25 0  19.25 1.25 0  19.5 1.25 0  19.75 1.25 0  20 1.25 0  20.25 1.25 0  20.5 1.25 0  20.75 1.25 0  21 1.25 0  21.25 1.25 0  21.5 1.25 0  21.75 1.25 0  22 1.25 0  22.25 1.25 0  22.5 1.25 0  22.75 1.25 0  23 1.25 0  23.25 1.25 0  23.5 1.25 0  23.75 1.25 0  24 1.25 0  24.25 1.25 0  24.5 1.25 0  24.75 1.25 0  25 1.25 0  0 1.5 0  0.25 1.5 0  0.5 1.5 0  0.75 1.5 0  1 1.5 0  1.25 1.5 0  1.5 1.5 0  1.75 1.5 0  2 1.5 0  2.25 1.5 0  2.5 1.5 0  2.75 1.5 0  3 1.5 0  3.25 1.5 0  3.5 1.5 0  3.75 1.5 0  4 1.5 0  4.25 1.5 0  4.5 1.5 0  4.75 1.5 0  5 1.5 0  5.25 1.5 0  5.5 1.5 0  5.75 1.5 0  6 1.5 0  6.25 1.5 0  6.5 1.5 0  6.75 1.5 0  7 1.5 0  7.25 1.5 0  7.5 1.5 0  7.75 1.5 0  8 1.5 0  8.25 1.5 0  8.5 1.5 0  8.75 1.5 0  9 1.5 0  9.25 1.5 0  9.5 1.5 0  9.75 1.5 0  10 1.5 0  10.25 1.5 0  10.5 1.5 0  10.75 1.5 0  11 1.5 0  11.25 1.5 0  11.5 1.5 0  11.75 1.5 0  12 1.5 0  12.25 1.5 0  12.5 1.5 0  12.75 1.5 0  13 1.5 0  13.25 1.5 0  13.5 1.5 0  13.75 1.5 0  14 1.5 0  14.25 1.5 0  14.5 1.5 0  14.75 1.5 0  15 1.5 0  15.25 1.5 0  15.5 1.5 0  15.75 1.5 0  16 1.5 0  16.25 1.5 0  16.5 1.5 0  16.75 1.5 0  17 1.5 0  17.25 1.5 0  17.5 1.5 0  17.75 1.5 0  18 1.5 0  18.25 1.5 0  18.5 1.5 0  18.75 1.5 0  19 1.5 0  19.25 1.5 0  19.5 1.5 0  19.75 1.5 0  20 1.5 0  20.25 1.5 0  20.5 1.5 0  20.75 1.5 0  21 1.5 0  21.25 1.5 0  21.5 1.5 0  21.75 1.5 0  22 1.5 0  22.25 1.5 0  22.5 1.5 0  22.75 1.5 0  23 1.5 0  23.25 1.5 0  23.5 1.5 0  23.75 1.5 0  24 1.5 0  24.25 1.5 0  24.5 1.5 0  24.75 1.5 0  25 1.5 0  0 1.75 0  0.25 1.75 0  0.5 1.75 0  0.75 1.75 0  1 1.75 0  1.25 1.75 0  1.5 1.75 0  1.75 1.75 0  2 1.75 0  2.25 1.75 0  2.5 1.75 0  2.75 1.75 0  3 1.75 0  3.25 1.75 0  3.5 1.75 0  3.75 1.75 0  4 1.75 0  4.25 1.75 0  4.5 1.75 0  4.75 1.75 0  5 1.75 0  5.25 1.75 0  5.5 1.75 0  5.75 1.75 0  6 1.75 0  6.25 1.75 0  6.5 1.75 0  6.75 1.75 0  7 1.75 0  7.25 1.75 0  7.5 1.75 0  7.75 1.75 0  8 1.75 0  8.25 1.75 0  8.5 1.75 0  8.75 1.75 0  9 1.75 0  9.25 1.75 0  9.5 1.75 0  9.75 1.75 0  10 1.75 0  10.25 1.75 0  10.5 1.75 0  10.75 1.75 0  11 1.75 0  11.25 1.75 0  11.5 1.75 0  11.75 1.75 0  12 1.75 0  12.25 1.75 0  12.5 1.75 0  12.75 1.75 0  13 1.75 0  13.25 1.75 0  13.5 1.75 0  13.75 1.75 0  14 1.75 0  14.25 1.75 0  14.5 1.75 0  14.75 1.75 0  15 1.75 0  15.25 1.75 0  15.5 1.75 0  15.75 1.75 0  16 1.75 0  16.25 1.75 0  16.5 1.75 0  16.75 1.75 0  17 1.75 0  17.25 1.75 0  17.5 1.75 0  17.75 1.75 0  18 1.75 0  18.25 1.75 0  18.5 1.75 0  18.75 1.75 0  19 1.75 0  19.25 1.75 0  19.5 1.75 0  19.75 1.75 0  20 1.75 0  20.25 1.75 0  20.5 1.75 0  20.75 1.75 0  21 1.75 0  21.25 1.75 0  21.5 1.75 0  21.75 1.75 0  22 1.75 0  22.25 1.75 0  22.5 1.75 0  22.75 1.75 0  23 1.75 0  23.25 1.75 0  23.5 1.75 0  23.75 1.75 0  24 1.75 0  24.25 1.75 0  24.5 1.75 0  24.75 1.75 0  25 1.75 0  0 2 0  0.25 2 0  0.5 2 0  0.75 2 0  1 2 0  1.25 2 0  1.5 2 0  1.75 2 0  2 2 0  2.25 2 0  2.5 2 0  2.75 2 0  3 2 0  3.25 2 0  3.5 2 0  3.75 2 0  4 2 0  4.25 2 0  4.5 2 0  4.75 2 0  5 2 0  5.25 2 0  5.5 2 0  5.75 2 0  6 2 0  6.25 2 0  6.5 2 0  6.75 2 0  7 2 0  7.25 2 0  7.5 2 0  7.75 2 0  8 2 0  8.25 2 0  8.5 2 0  8.75 2 0  9 2 0  9.25 2 0  9.5 2 0  9.75 2 0  10 2 0  10.25 2 0  10.5 2 0  10.75 2 0  11 2 0  11.25 2 0 
[...]
<PointData  Scalars="f_26"> 
<DataArray  type="Float64"  Name="f_26"  format="ascii">2.4413247980121563e-05  2.4408313521883122e-05  2.4397227003793337e-05  2.4379505287285389e-05  2.4355072130219034e-05  2.4323996951210700e-05  2.4286441923221434e-05  2.4242659492923443e-05  2.4193003124867424e-05  2.4137940445186386e-05  2.4078064126250150e-05  2.4014097551186893e-05  2.3946893116194787e-05  2.3877421856906333e-05  2.3806754104448878e-05  2.3736031999210591e-05  2.3666435674285826e-05  2.3599145458730102e-05  2.3535302310135483e-05  2.3475967923096096e-05  2.3422085153193901e-05  2.3374439623677157e-05  2.3333625514789964e-05  2.3300021856999013e-05  2.3273787151341750e-05  2.3254876439930038e-05  2.3243076166030027e-05  2.3238043541907381e-05  2.3239335327192800e-05  2.3246417864646521e-05  2.3258661217348856e-05  2.3275328132820645e-05  2.3295569442192957e-05  2.3318432744934121e-05  2.3342884996905516e-05  2.3367845328174350e-05  2.3392223049011643e-05  2.3414956474708074e-05  2.3435049573852607e-05  2.3451604656698825e-05  2.3463850120643842e-05  2.3471162747855082e-05  2.3473084355343383e-05  2.3469332818381594e-05  2.3459807650731799e-05  2.3444590434791456e-05  2.3423940462128139e-05  2.3398285984887104e-05  2.3368211486762998e-05  2.3334441302211794e-05  2.3297819613965185e-05  2.3259286159134148e-05  2.3219845762291066e-05  2.3180528337044265e-05  2.3142335256607401e-05  2.3106169880984885e-05  2.3072756497917673e-05  2.3042562797992045e-05  2.3015751616670933e-05  2.2992189847461800e-05  2.2971530606777667e-05  2.2953362909136047e-05  2.2937403230463363e-05  2.2923693513617692e-05  2.2912765607954462e-05  2.2905722645438127e-05  2.2904178061241204e-05  2.2910011394204810e-05  2.2924972443670286e-05  2.2950265135627326e-05  2.2986285508398942e-05  2.3032615342474419e-05  2.3088231416262800e-05  2.3151793258600600e-05  2.3221879597422805e-05  2.3297118357124785e-05  2.3376225591529375e-05  2.3457998038759532e-05  2.3541297671355972e-05  2.3625046456554534e-05  2.3708233121483381e-05  2.3789927158027713e-05  2.3869294953727446e-05  2.3945614072972896e-05  2.4018282950503562e-05  2.4086824564205539e-05  2.4150883872359164e-05  2.4210219728803830e-05  2.4264692545546826e-05  2.4314249183535549e-05  2.4358906500919521e-05  2.4398734770525313e-05  2.4433841881349039e-05  2.4464358928077657e-05  2.4490427506815939e-05  2.4512188781967911e-05  2.4529774125058756e-05  2.4543296660856151e-05  2.4552841613140678e-05  2.4558447492069717e-05  2.4560043715435462e-05  2.4406544459692856e-05  2.4402674671255865e-05  2.4391865780816821e-05  2.4374244781270636e-05  2.4349873783382401e-05  2.4318858259997882e-05  2.4281372476792733e-05  2.4237674672528421e-05  2.4188122053562664e-05  2.4133184974681081e-05  2.4073458016847056e-05  2.4009665618068441e-05  2.3942660307796294e-05  2.3873412306174720e-05  2.3802990226407772e-05  2.3732533716883090e-05  2.3663219842264324e-05  2.3596225515496989e-05  2.3532688126853795e-05  2.3473665754304974e-05  2.3420097581654142e-05  2.3372765446616934e-05  2.3332259614229413e-05  2.3298955191812890e-05  2.3273007055865995e-05  2.3254367360815089e-05  2.3242820805129819e-05  2.3238024172319044e-05  2.3239534939920477e-05  2.3246820866913092e-05  2.3259253601512479e-05  2.3276097240095498e-05  2.3296503548480079e-05  2.3319520675403358e-05  2.3344115883265344e-05  2.3369208525440980e-05  2.3393708167887139e-05  2.3416553467451168e-05  2.3436748821133143e-05  2.3453397022193449e-05  2.3465726957129737e-05  2.3473115849288747e-05  2.3475105855031593e-05  2.3471415036508389e-05  2.3461942896822257e-05  2.3446770772060518e-05  2.3426157439939170e-05  2.3400530341957727e-05  2.3370472822560464e-05  2.3336707712148787e-05  2.3300077295537694e-05  2.3261519035515047e-05  2.3222035249732185e-05  2.3182653495750788e-05  2.3144373657225611e-05  2.3108099476752000e-05  2.3074558498574275e-05  2.3044225023222557e-05  2.3017271364222431e-05  2.2993575378707199e-05  2.2972801035996184e-05  2.2954547033318668e-05  2.2938537843103475e-05  2.2924820829699955e-05  2.2913928490878840e-05  2.2906956795088397e-05  2.2905502768386174e-05  2.2911423264482601e-05  2.2926446434050067e-05  2.2951763101136322e-05  2.2987767576408506e-05  2.3034048425463482e-05  2.3089592378320691e-05  2.3153067959734354e-05  2.3223060395097405e-05  2.3298201893733407e-05  2.3377211414202690e-05  2.3458887793581273e-05  2.3542094518483592e-05  2.3625754640117368e-05  2.3708857722628949e-05  2.3790473934815835e-05  2.3869770162448587e-05  2.3946024255408606e-05  2.4018634719387871e-05  2.4087124416179533e-05  2.4151138041369855e-05  2.4210434080818348e-05  2.4264872509686117e-05  2.4314399713234118e-05  2.4359032059556688e-05  2.4398839338041089e-05  2.4433928981445285e-05  2.4464431680896814e-05  2.4490488724268792e-05  2.4512241159470698e-05  2.4529820712102023e-05  2.4543342302673777e-05  2.4552898269129321e-05  2.4558556624498193e-05  2.4560379189972192e-05  2.4390156052665373e-05  2.4386564396381790e-05  2.4375972206683488e-05  2.4358508514221541e-05  2.4334279674839573e-05  2.4303420086997195e-05  2.4266122001087507e-05  2.4222656450590199e-05  2.4173390864142749e-05  2.4118804040538239e-05  2.4059497206547623e-05  2.3996199322595638e-05  2.3929764949531243e-05  2.3861163593140025e-05  2.3791460360958193e-05  2.3721788811355172e-05  2.3653317773089948e-05  2.3587214348617357e-05  2.3524605076892820e-05  2.3466536453229273e-05  2.3413935345733013e-05  2.3367570374312897e-05  2.3328017748674151e-05  2.3295638435053379e-05  2.3270574642525376e-05  2.3252769223559466e-05  2.3242002270244114e-05  2.3237930686212770e-05  2.3240115468818881e-05  2.3248029262056718e-05  2.3261048126294982e-05  2.3278439077064651e-05  2.3299355202939072e-05  2.3322844888980784e-05  2.3347875250580005e-05  2.3373365695588853e-05  2.3398226382395359e-05  2.3421397194312717e-05  2.3441884313332893e-05  2.3458792702442185e-05  2.3471353585243000e-05  2.3478946463524786e-05  2.3481115499988928e-05  2.3477580303325608e-05  2.3468241308651751e-05  2.3453180048831154e-05  2.3432654670317640e-05  2.3407091077671278e-05  2.3377070095324137e-05  2.3343310967717302e-05  2.3306651263886844e-05  2.3268022640861697e-05  2.3228420836276006e-05  2.3188866896415894e-05  2.3150355867893269e-05  2.3113790703455650e-05  2.3079904860528076e-05  2.3049187154616744e-05  2.3021832968114004e-05  2.2997749267768530e-05  2.2976630940703622e-05  2.2958105066365187e-05  2.2941918670966521e-05  2.2928133300346755e-05  2.2917284174904644e-05  2.2910454503956517e-05  2.2909210325276808e-05  2.2915361927189458e-05  2.2930585616197522e-05  2.2956029661777637e-05  2.2992066209144656e-05  2.3038283849466649e-05  2.3093684805484346e-05  2.3156958941500286e-05  2.3226711402947528e-05  2.3301589790261307e-05  2.3380323937840703e-05  2.3461720343791318e-05  2.3544648242030492e-05  2.3628035348183315e-05  2.3710875195335981e-05  2.3792241337781382e-05  2.3871303444090282e-05  2.3947341488660377e-05  2.4019755405999375e-05  2.4088068794723773e-05  2.4151926442178577e-05  2.4211086362455431e-05  2.4265407599271845e-05  2.4314835261040222e-05  2.4359384208996891e-05  2.4399122606644805e-05  2.4434156247552464e-05  2.4464614276502282e-05  2.4490636651756766e-05  2.4512363492427789e-05  2.4529926340399097e-05  2.4543441397465049e-05  2.4553005137197630e-05  2.4558693683507802e-05  2.4560568755569695e-05  2.4363614220659249e-05  2.4360124216660856e-05  2.4349689342841137e-05  2.4332402494656507e-05  2.4308376944685116e-05  2.4277763803667010e-05  2.4240772652262739e-05  2.4197690773670830e-05  2.4148900449156786e-05  2.4094893523219929e-05  2.4036281801726402e-05  2.3973801586340936e-05  2.3908310839182317e-05  2.3840778059860039e-05  2.3772262834825612e-05  2.3703888995599906e-05  2.3636812117910391e-05  2.3572183400844767e-05  2.3511111615873085e-05  2.3454624026280417e-05  2.3403626708321658e-05  2.3358865644343139e-05  2.3320892821701946e-05  2.3290044965178349e-05  2.3266442971394189e-05  2.3250014644335609e-05  2.3240533385193297e-05  2.3237657436334961e-05  2.3240954525273764e-05  2.3249905768332666e-05  2.3263894372047895e-05  2.3282191656440404e-05  2.3303952242320935e-05  2.3328224314854785e-05  2.3353974325915343e-05  2.3380121548138372e-05  2.3405577067568718e-05  2.3429282879446666e-05  2.3450248300868768e-05  2.3467582135868096e-05  2.3480519771857416e-05  2.3488444804717686e-05  2.3490905054771179e-05  2.3487623032997481e-05  2.3478501062822375e-05  2.3463621354832690e-05  2.3443241378068468e-05  2.3417784891242271e-05  2.3387828997535696e-05  2.3354087531447104e-05  2.3317390873588373e-05  2.3278661763934259e-05  2.3238885728978250e-05  2.3199073500169858e-05  2.3160212027127093e-05  2.3123201918962184e-05  2.3088784188971141e-05  2.3057468398947937e-05  2.3029484441928303e-05  2.3004784312568785e-05  2.2983112076642834e-05  2.2964140921241279e-05  2.2947654923521565e-05  2.2933739060627854e-05  2.2922933708281917e-05  2.2916303432462755e-05  2.2915368051802495e-05  2.2921867605414252e-05  2.2937398615154794e-05  2.2963041521209821e-05  2.2999130272924736e-05  2.3045249459607760e-05  2.3100422713449695e-05  2.3163372276802431e-05  2.3232734806373016e-05  2.3307182877921051e-05  2.3385464242495334e-05  2.3466398149417456e-05  2.3548863534067629e-05  2.3631796130732856e-05  2.3714196396961442e-05  2.3795143853909702e-05  2.3873813130283571e-05  2.3949488056738067e-05  2.4021571247116771e-05  2.4089587791196490e-05  2.4153182840629102e-05  2.4212113772331252e-05  2.4266238162111592e-05  2.4315499014742631e-05  2.4359908652869864e-05  2.4399532459947642e-05  2.4434473387823834e-05  2.4464857844757667e-05  2.4490823320170200e-05  2.4512507905990268e-05  2.4530041758256081e-05  2.4543540519893521e-05  2.4553100790235706e-05  2.4558797725614923e-05  2.4560683957815411e-05  2.4326873608760704e-05  2.4323446899786075e-05  2.4313153178566401e-05  2.4296067865508951e-05  2.4272306393554673e-05  2.4242032558903608e-05  2.4205473062595921e-05  2.4162933706559664e-05  2.4114814957550662e-05  2.4061625144541024e-05  2.4003989556488435e-05  2.3942653755012753e-05  2.3878479730101409e-05  2.3812434146076353e-05  2.3745568772577644e-05  2.3678994084541134e-05  2.3613847667742736e-05  2.3551259199015423e-05  2.3492313286760966e-05  2.3438010698634420e-05  2.3389228361650349e-05  2.3346680076849212e-05  2.3310883301060982e-05  2.3282140591493293e-05  2.3260543611542189e-05  2.3246000605982096e-05  2.3238277634159230e-05  2.3237036717103419e-05  2.3241856248189590e-05  2.3252229588179330e-05  2.3267549621579886e-05  2.3287092994224398e-05  2.3310015724710327e-05  2.3335365127092101e-05  2.3362106354522653e-05  2.3389158316864419e-05  2.3415433362775819e-05  2.3439876489923758e-05  2.3461501494095008e-05  2.3479422669308512e-05  2.3492881358882850e-05  2.3501267029183800e-05  2.3504132774524899e-05  2.3501205342622460e-05  2.3492389903460140e-05  2.3477769862652983e-05  2.3457602050839384e-05  2.3432307625350803e-05  2.3402459013486702e-05  2.3368763183710609e-05  2.3332041366761239e-05  2.3293204925277399e-05  2.3253226273596413e-05  2.3213102678267950e-05  2.3173810035784502e-05  2.3136244651921782e-05  2.3101155293942810e-05  2.3069075915037425e-05  2.3040278929698626e-05  2.3014773693717356e-05  2.2992368782977161e-05  2.2972799449161259e-05  2.2955900633381346e-05  2.2941789846755030e-05  2.2931014907196409e-05  2.2924615750523777e-05  2.2924051510439451e-05  2.2930971015309655e-05  2.2946868033318666e-05  2.2972735933708203e-05  2.3008859432195634e-05  2.3054817459956639e-05  2.3109660611630156e-05  2.3172152517394138e-05  2.3240970541559461e-05  2.3314819885861413e-05  2.3392472018414131e-05  2.3472763339520830e-05  2.3554586054121311e-05  2.3636887013335255e-05  2.3718676355001129e-05  2.3799041978937918e-05  2.3877165496380518e-05  2.3952336177708339e-05  2.4023960425773399e-05  2.4091565447972923e-05  2.4154796923508588e-05  2.4213411339045965e-05  2.4267264199935414e-05  2.4316295533277076e-05  2.4360514058165702e-05  2.4399981197968298e-05  2.4434795832839177e-05  2.4465080402997730e-05  2.4490968718306229e-05  2.4512595631461998e-05  2.4530088598361090e-05  2.4543561070424254e-05  2.4553107597368231e-05  2.4558800342797001e-05  2.4560686181275996e-05  2.4280061247429516e-05  2.4276695057545223e-05  2.4266553662839481e-05  2.4249708643790896e-05  2.4226281045650431e-05  2.4196448098228838e-05  2.4160454752755921e-05  2.4118627292458505e-05  2.4071386770097019e-05  2.4019260310874583e-05  2.3962888451830591e-05  2.3903026888291650e-05  2.3840541404449141e-05  2.3776395410452076e-05  2.3711630312670744e-05  2.3647339714631272e-05  2.3584638910862279e-05  2.3524631056435179e-05  2.3468370784710409e-05  2.3416825414026151e-05  2.3370834274928754e-05  2.3331069077625084e-05  2.3298002190423257e-05  2.3271892422044112e-05  2.3252795486776155e-05  2.3240597466737469e-05  2.3235058519877414e-05  2.3235848573482800e-05  2.3242561551654114e-05  2.3254706998021862e-05  2.3271689663438257e-05  2.3292792010491272e-05  2.3317170845510218e-05  2.3343871626219023e-05  2.3371857417596616e-05  2.3400046490550595e-05  2.3427352788503991e-05  2.3452725202500263e-05  2.3475183332989758e-05  2.3493848572275425e-05  2.3507969952855177e-05  2.3516944520534728e-05  2.3520332195123611e-05  2.3517865244655165e-05  2.3509452618675153e-05  2.3495179448392890e-05  2.3475302032875399e-05  2.3450238616391404e-05  2.3420556244046774e-05  2.3386953949044774e-05  2.3350242408080871e-05  2.3311319884026065e-05  2.3271143649757272e-05  2.3230695211491730e-05  2.3190936999782668e-05  2.3152758863933462e-05  2.3116916149689244e-05  2.3083968054133656e-05  2.3054233514639791e-05  2.3027787057789166e-05  2.3004513004487762e-05  2.2984221656945991e-05  2.2966810896985820e-05  2.2952439001309710e-05  2.2941663197834238e-05  2.2935493317767783e-05  2.2935315563511763e-05  2.2942671256832838e-05  2.2958935176812114e-05  2.2985001422922182e-05  2.3021099582508535e-05  2.3066803245504970e-05  2.3121194610374315e-05  2.3183085216764158e-05  2.3251199623443133e-05  2.3324281171123309e-05  2.3401129466864596e-05  2.3480601678057572e-05  2.3561606406759026e-05  2.3643104433018227e-05  2.3724118104873715e-05  2.3803745911043400e-05  2.3881178277726082e-05  2.3955711317082832e-05  2.4026756160546935e-05  2.4093842606167326e-05  2.4156616892129980e-05  2.4214834254324851e-05  2.4268347442035885e-05  2.4317092569629928e-05  2.4361073644586698e-05  2.4400346919796279e-05  2.4435005950695786e-05  2.4465167958064801e-05  2.4490961846733768e-05  2.4512518030716568e-05  2.4529960070731311e-05  2.4543398029191355e-05  2.4552923361425909e-05  2.4558605045662316e-05  2.4560486494522407e-05  2.4223436599094797e-05  2.4220139463207132e-05  2.4210177333663426e-05  2.4193625087138897e-05  2.4170613305902636e-05  2.4141334754670786e-05  2.4106054233164461e-05  2.4065120075719391e-05  2.4018975411099533e-05  2.3968167322867985e-05  2.3913352165645756e-05  2.3855295548844907e-05  2.3794865953286697e-05  2.3733021589510224e-05  2.3670790835213985e-05  2.3609247197236090e-05  2.3549479974126875e-05  2.3492561486101606e-05  2.3439511056944204e-05  2.3391255605938474e-05  2.3348587908013885e-05  2.3312126963930000e-05  2.3282289200935703e-05  2.3259280810172270e-05  2.3243116744678057e-05  2.3233661024648721e-05  2.3230672080513769e-05  2.3233833907086931e-05  2.3242761812149996e-05  2.3256985505626943e-05  2.3275923271123864e-05  2.3298863196295871e-05  2.3324961694274178e-05  2.3353261022440104e-05  2.3382721198672990e-05  2.3412259524973135e-05  2.3440791861692434e-05  2.3467271870226287e-05  2.3490726241484394e-05  2.3510285004150414e-05  2.3525206519641523e-05  2.3534897016747755e-05  2.3538924687789267e-05  2.3537028513628865e-05  2.3529122090643874e-05  2.3515292777970177e-05  2.3495796473476352e-05  2.3471048290899375e-05  2.3441609377569158e-05  2.3408170082680274e-05  2.3371529610890245e-05  2.3332572078633932e-05  2.3292238434851693e-05  2.3251493040332091e-05  2.3211283174711482e-05  2.3172490222546277e-05  2.3135874009803304e-05  2.3102017458877402e-05  2.3071286188201992e-05  2.3043822875260576e-05  2.3019593875878027e-05  2.2998493329919076e-05  2.2980491155396912e-05  2.2965792918928807e-05  2.2954966808771785e-05  2.2948988315847108e-05  2.2949161984048780e-05  2.2956911334382621e-05  2.2973483481142422e-05  2.2999668201527761e-05  2.3035638798299466e-05  2.3080965299466346e-05  2.3134764899262038e-05  2.3195900965535631e-05  2.3263149049988400e-05  2.3335294065378374e-05  2.3411166841914806e-05  2.3489648160156984e-05  2.3569665701793190e-05  2.3650196688681044e-05  2.3730277964897601e-05  2.3809020594704787e-05  2.3885625438030013e-05  2.3959396646718195e-05  2.4029750830114323e-05  2.4096220679440068e-05  2.4158452877321420e-05  2.4216200929387403e-05  2.4269314051228197e-05  2.4317723442129279e-05  2.4361427243759617e-05  2.4400475299159107e-05  2.4434954570965902e-05  2.4464975807568661e-05  2.4490661801533647e-05  2.4512137386922414e-05  2.4529521175729454e-05  2.4542918931277656e-05  2.4552418403439280e-05  2.4558085396139868e-05  2.4559960823248543e-05  2.4157402861743127e-05  2.4154187960155527e-05  2.4144441900568358e-05  2.4128246474534765e-05  2.4105744568858392e-05  2.4077146303365598e-05  2.4042737549074797e-05  2.4002889525230890e-05  2.3958067886764759e-05  2.3908839642541410e-05  2.3855876343826334e-05  2.3799952262038385e-05  2.3741936741267788e-05  2.3682780515160121e-05  2.3623496383823420e-05  2.3565135038428982e-05  2.3508756780667662e-05  2.3455399362525100e-05  2.3406041551250859e-05  2.3361562295638689e-05  2.3322697691092807e-05  2.3290002326647520e-05  2.3263825686375406e-05  2.3244313867116199e-05  2.3231439126690155e-05  2.3225047137270235e-05  2.3224902082663725e-05  2.3230710394838037e-05  2.3242115493552864e-05  2.3258671055592106e-05  2.3279809832623641e-05  2.3304824530673595e-05  2.3332869359403168e-05  2.3362981658761468e-05  2.3394117271456702e-05  2.3425192143728513e-05  2.3455124351533809e-05  2.3482873165373315e-05  2.3507473579385814e-05  2.3528065687641726e-05  2.3543918684003583e-05  2.3554449433683231e-05  2.3559235698512996e-05  2.3558024227645179e-05  2.3550734018560959e-05  2.3537455081502052e-05  2.3518443008258076e-05  2.3494109586024021e-05  2.3465009645350040e-05  2.3431824300402465e-05  2.3395340697407534e-05  2.3356428256835770e-05  2.3316011094336270e-05  2.3275035841426625e-05  2.3234433715131004e-05  2.3195076067380721e-05  2.3157724773000739e-05  2.3122983392621803e-05  2.3091261313338247e-05  2.3062767920107224e-05  2.3037552736869614e-05  2.3015597524004229e-05  2.2996949296122336e-05  2.2981864931949334e-05  2.2970924565777276e-05  2.2965066881983128e-05  2.2965510385901563e-05  2.2973557053763846e-05  2.2990325104701361e-05  2.3016501391190059e-05  2.3052205679508238e-05  2.3097007141106977e-05  2.3150060018724271e-05  2.3210281055677978e-05  2.3276498245266905e-05  2.3347539717722593e-05  2.3422269462911826e-05  2.3499594047379735e-05  2.3578462506129898e-05  2.3657870722570655e-05  2.3736872072515930e-05  2.3814591948290711e-05  2.3890243037123975e-05  2.3963138513886586e-05  2.4032701016736121e-05  2.4098466256341559e-05  2.4160081095685918e-05  2.4217296709895964e-05  2.4269957910886867e-05  2.4317989914283982e-05  2.4361383798291541e-05  2.4400181732565493e-05  2.4434462811486326e-05  2.4464330067318517e-05  2.4489899002795701e-05  2.4511287790116173e-05  2.4528609140224569e-05  2.4541963748942475e-05  2.4551435167403962e-05  2.4557085919789701e-05  2.4558954712232554e-05  2.4082530124272860e-05  2.4079412836736087e-05  2.4069926184040299e-05  2.4054160655112976e-05  2.4032272943642663e-05  2.4004491456110324e-05  2.3971123492773453e-05  2.3932562985453450e-05  2.3889297423760142e-05  2.3841912529898295e-05  2.3791093352222968e-05  2.3737620739960233e-05  2.3682362610165203e-05  2.3626259936854404e-05  2.3570307818472642e-05  2.3515532104524523e-05  2.3462961736380258e-05  2.3413596306304489e-05  2.3368368046870304e-05  2.3328098736814339e-05  2.3293455686413339e-05  2.3264916057105198e