<?xml version="1.0"?>
<VTKFile type="UnstructuredGrid"  version="0.1"  >
<UnstructuredGrid>
<Piece  NumberOfPoints="10201" NumberOfCells="20000">
<Points>
<DataArray  type="Float64"  NumberOfComponents="3"  format="ascii">0 0 0  0.25 0 0  0.5 0 0  0.75 0 0  1 0 0  1.25 0 0  1.5 0 0  1.75 0 0  2 0 0  2.25 0 0  2.5 0 0  2.75 0 0  3 0 0  3.25 0 0  3.5 0 0  3.75 0 0  4 0 0  4.25 0 0  4.5 0 0  4.75 0 0  5 0 0  5.25 0 0  5.5 0 0  5.75 0 0  6 0 0  6.25 0 0  6.5 0 0  6.75 0 0  7 0 0  7.25 0 0  7.5 0 0  7.75 0 0  8 0 0  8.25 0 0  8.5 0 0  8.75 0 0  9 0 0  9.25 0 0  9.5 0 0  9.75 0 0  10 0 0  10.25 0 0  10.5 0 0  10.75 0 0  11 0 0  11.25 0 0  11.5 0 0  11.75 0 0  12 0 0  12.25 0 0  12.5 0 0  12.75 0 0  13 0 0  13.25 0 0  13.5 0 0  13.75 0 0  14 0 0  14.25 0 0  14.5 0 0  14.75 0 0  15 0 0  15.25 0 0  15.5 0 0  15.75 0 0  16 0 0  16.25 0 0  16.5 0 0  16.75 0 0  17 0 0  17.25 0 0  17.5 0 0  17.75 0 0  18 0 0  18.25 0 0  18.5 0 0  18.75 0 0  19 0 0  19.25 0 0  19.5 0 0  19.75 0 0  20 0 0  20.25 0 0  20.5 0 0  20.75 0 0  21 0 0  21.25 0 0  21.5 0 0  21.75 0 0  22 0 0  22.25 0 0  22.5 0 0  22.75 0 0  23 0 0  23.25 0 0  23.5 0 0  23.75 0 0  24 0 0  24.25 0 0  24.5 0 0  24.75 0 0  25 0 0  0 0.25 0  0.25 0.25 0  0.5 0.25 0  0.75 0.25 0  1 0.25 0  1.25 0.25 0  1.5 0.25 0  1.75 0.25 0  2 0.25 0  2.25 0.25 0  2.5 0.25 0  2.75 0.25 0  3 0.25 0  3.25 0.25 0  3.5 0.25 0  3.75 0.25 0  4 0.25 0  4.25 0.25 0  4.5 0.25 0  4.75 0.25 0  5 0.25 0  5.25 0.25 0  5.5 0.25 0  5.75 0.25 0  6 0.25 0  6.25 0.25 0  6.5 0.25 0  6.75 0.25 0  7 0.25 0  7.25 0.25 0  7.5 0.25 0  7.75 0.25 0  8 0.25 0  8.25 0.25 0  8.5 0.25 0  8.75 0.25 0  9 0.25 0  9.25 0.25 0  9.5 0.25 0  9.75 0.25 0  10 0.25 0  10.25 0.25 0  10.5 0.25 0  10.75 0.25 0  11 0.25 0  11.25 0.25 0  11.5 0.25 0  11.75 0.25 0  12 0.25 0  12.25 0.25 0  12.5 0.25 0  12.75 0.25 0  13 0.25 0  13.25 0.25 0  13.5 0.25 0  13.75 0.25 0  14 0.25 0  14.25 0.25 0  14.5 0.25 0  14.75 0.25 0  15 0.25 0  15.25 0.25 0  15.5 0.25 0  15.75 0.25 0  16 0.25 0  16.25 0.25 0  16.5 0.25 0  16.75 0.25 0  17 0.25 0  17.25 0.25 0  17.5 0.25 0  17.75 0.25 0  18 0.25 0  18.25 0.25 0  18.5 0.25 0  18.75 0.25 0  19 0.25 0  19.25 0.25 0  19.5 0.25 0  19.75 0.25 0  20 0.25 0  20.25 0.25 0  20.5 0.25 0  20.75 0.25 0  21 0.25 0  21.25 0.25 0  21.5 0.25 0  21.75 0.25 0  22 0.25 0  22.25 0.25 0  22.5 0.25 0  22.75 0.25 0  23 0.25 0  23.25 0.25 0  23.5 0.25 0  23.75 0.25 0  24 0.25 0  24.25 0.25 0  24.5 0.25 0  24.75 0.25 0  25 0.25 0  0 0.5 0  0.25 0.5 0  0.5 0.5 0  0.75 0.5 0  1 0.5 0  1.25 0.5 0  1.5 0.5 0  1.75 0.5 0  2 0.5 0  2.25 0.5 0  2.5 0.5 0  2.75 0.5 0  3 0.5 0  3.25 0.5 0  3.5 0.5 0  3.75 0.5 0  4 0.5 0  4.25 0.5 0  4.5 0.5 0  4.75 0.5 0  5 0.5 0  5.25 0.5 0  5.5 0.5 0  5.75 0.5 0  6 0.5 0  6.25 0.5 0  6.5 0.5 0  6.75 0.5 0  7 0.5 0  7.25 0.5 0  7.5 0.5 0  7.75 0.5 0  8 0.5 0  8.25 0.5 0  8.5 0.5 0  8.75 0.5 0  9 0.5 0  9.25 0.5 0  9.5 0.5 0  9.75 0.5 0  10 0.5 0  10.25 0.5 0  10.5 0.5 0  10.75 0.5 0  11 0.5 0  11.25 0.5 0  11.5 0.5 0  11.75 0.5 0  12 0.5 0  12.25 0.5 0  12.5 0.5 0  12.75 0.5 0  13 0.5 0  13.25 0.5 0  13.5 0.5 0  13.75 0.5 0  14 0.5 0  14.25 0.5 0  14.5 0.5 0  14.75 0.5 0  15 0.5 0  15.25 0.5 0  15.5 0.5 0  15.75 0.5 0  16 0.5 0  16.25 0.5 0  16.5 0.5 0  16.75 0.5 0  17 0.5 0  17.25 0.5 0  17.5 0.5 0  17.75 0.5 0  18 0.5 0  18.25 0.5 0  18.5 0.5 0  18.75 0.5 0  19 0.5 0  19.25 0.5 0  19.5 0.5 0  19.75 0.5 0  20 0.5 0  20.25 0.5 0  20.5 0.5 0  20.75 0.5 0  21 0.5 0  21.25 0.5 0  21.5 0.5 0  21.75 0.5 0  22 0.5 0  22.25 0.5 0  22.5 0.5 0  22.75 0.5 0  23 0.5 0  23.25 0.5 0  23.5 0.5 0  23.75 0.5 0  24 0.5 0  24.25 0.5 0  24.5 0.5 0  24.75 0.5 0  25 0.5 0  0 0.75 0  0.25 0.75 0  0.5 0.75 0  0.75 0.75 0  1 0.75 0  1.25 0.75 0  1.5 0.75 0  1.75 0.75 0  2 0.75 0  2.25 0.75 0  2.5 0.75 0  2.75 0.75 0  3 0.75 0  3.25 0.75 0  3.5 0.75 0  3.75 0.75 0  4 0.75 0  4.25 0.75 0  4.5 0.75 0  4.75 0.75 0  5 0.75 0  5.25 0.75 0  5.5 0.75 0  5.75 0.75 0  6 0.75 0  6.25 0.75 0  6.5 0.75 0  6.75 0.75 0  7 0.75 0  7.25 0.75 0  7.5 0.75 0  7.75 0.75 0  8 0.75 0  8.25 0.75 0  8.5 0.75 0  8.75 0.75 0  9 0.75 0  9.25 0.75 0  9.5 0.75 0  9.75 0.75 0  10 0.75 0  10.25 0.75 0  10.5 0.75 0  10.75 0.75 0  11 0.75 0  11.25 0.75 0  11.5 0.75 0  11.75 0.75 0  12 0.75 0  12.25 0.75 0  12.5 0.75 0  12.75 0.75 0  13 0.75 0  13.25 0.75 0  13.5 0.75 0  13.75 0.75 0  14 0.75 0  14.25 0.75 0  14.5 0.75 0  14.75 0.75 0  15 0.75 0  15.25 0.75 0  15.5 0.75 0  15.75 0.75 0  16 0.75 0  16.25 0.75 0  16.5 0.75 0  16.75 0.75 0  17 0.75 0  17.25 0.75 0  17.5 0.75 0  17.75 0.75 0  18 0.75 0  18.25 0.75 0  18.5 0.75 0  18.75 0.75 0  19 0.75 0  19.25 0.75 0  19.5 0.75 0  19.75 0.75 0  20 0.75 0  20.25 0.75 0  20.5 0.75 0  20.75 0.75 0  21 0.75 0  21.25 0.75 0  21.5 0.75 0  21.75 0.75 0  22 0.75 0  22.25 0.75 0  22.5 0.75 0  22.75 0.75 0  23 0.75 0  23.25 0.75 0  23.5 0.75 0  23.75 0.75 0  24 0.75 0  24.25 0.75 0  24.5 0.75 0  24.75 0.75 0  25 0.75 0  0 1 0  0.25 1 0  0.5 1 0  0.75 1 0  1 1 0  1.25 1 0  1.5 1 0  1.75 1 0  2 1 0  2.25 1 0  2.5 1 0  2.75 1 0  3 1 0  3.25 1 0  3.5 1 0  3.75 1 0  4 1 0  4.25 1 0  4.5 1 0  4.75 1 0  5 1 0  5.25 1 0  5.5 1 0  5.75 1 0  6 1 0  6.25 1 0  6.5 1 0  6.75 1 0  7 1 0  7.25 1 0  7.5 1 0  7.75 1 0  8 1 0  8.25 1 0  8.5 1 0  8.75 1 0  9 1 0  9.25 1 0  9.5 1 0  9.75 1 0  10 1 0  10.25 1 0  10.5 1 0  10.75 1 0  11 1 0  11.25 1 0  11.5 1 0  11.75 1 0  12 1 0  12.25 1 0  12.5 1 0  12.75 1 0  13 1 0  13.25 1 0  13.5 1 0  13.75 1 0  14 1 0  14.25 1 0  14.5 1 0  14.75 1 0  15 1 0  15.25 1 0  15.5 1 0  15.75 1 0  16 1 0  16.25 1 0  16.5 1 0  16.75 1 0  17 1 0  17.25 1 0  17.5 1 0  17.75 1 0  18 1 0  18.25 1 0  18.5 1 0  18.75 1 0  19 1 0  19.25 1 0  19.5 1 0  19.75 1 0  20 1 0  20.25 1 0  20.5 1 0  20.75 1 0  21 1 0  21.25 1 0  21.5 1 0  21.75 1 0  22 1 0  22.25 1 0  22.5 1 0  22.75 1 0  23 1 0  23.25 1 0  23.5 1 0  23.75 1 0  24 1 0  24.25 1 0  24.5 1 0  24.75 1 0  25 1 0  0 1.25 0  0.25 1.25 0  0.5 1.25 0  0.75 1.25 0  1 1.25 0  1.25 1.25 0  1.5 1.25 0  1.75 1.25 0  2 1.25 0  2.25 1.25 0  2.5 1.25 0  2.75 1.25 0  3 1.25 0  3.25 1.25 0  3.5 1.25 0  3.75 1.25 0  4 1.25 0  4.25 1.25 0  4.5 1.25 0  4.75 1.25 0  5 1.25 0  5.25 1.25 0  5.5 1.25 0  5.75 1.25 0  6 1.25 0  6.25 1.25 0  6.5 1.25 0  6.75 1.25 0  7 1.25 0  7.25 1.25 0  7.5 1.25 0  7.75 1.25 0  8 1.25 0  8.25 1.25 0  8.5 1.25 0  8.75 1.25 0  9 1.25 0  9.25 1.25 0  9.5 1.25 0  9.75 1.25 0  10 1.25 0  10.25 1.25 0  10.5 1.25 0  10.75 1.25 0  11 1.25 0  11.25 1.25 0  11.5 1.25 0  11.75 1.25 0  12 1.25 0  12.25 1.25 0  12.5 1.25 0  12.75 1.25 0  13 1.25 0  13.25 1.25 0  13.5 1.25 0  13.75 1.25 0  14 1.25 0  14.25 1.25 0  14.5 1.25 0  14.75 1.25 0  15 1.25 0  15.25 1.25 0  15.5 1.25 0  15.75 1.25 0  16 1.25 0  16.25 1.25 0  16.5 1.25 0  16.75 1.25 0  17 1.25 0  17.25 1.25 0  17.5 1.25 0  17.75 1.25 0  18 1.25 0  18.25 1.25 0  18.5 1.25 0  18.75 1.25 0  19 1.25 0  19.25 1.25 0  19.5 1.25 0  19.75 1.25 0  20 1.25 0  20.25 1.25 0  20.5 1.25 0  20.75 1.25 0  21 1.25 0  21.25 1.25 0  21.5 1.25 0  21.75 1.25 0  22 1.25 0  22.25 1.25 0  22.5 1.25 0  22.75 1.25 0  23 1.25 0  23.25 1.25 0  23.5 1.25 0  23.75 1.25 0  24 1.25 0  24.25 1.25 0  24.5 1.25 0  24.75 1.25 0  25 1.25 0  0 1.5 0  0.25 1.5 0  0.5 1.5 0  0.75 1.5 0  1 1.5 0  1.25 1.5 0  1.5 1.5 0  1.75 1.5 0  2 1.5 0  2.25 1.5 0  2.5 1.5 0  2.75 1.5 0  3 1.5 0  3.25 1.5 0  3.5 1.5 0  3.75 1.5 0  4 1.5 0  4.25 1.5 0  4.5 1.5 0  4.75 1.5 0  5 1.5 0  5.25 1.5 0  5.5 1.5 0  5.75 1.5 0  6 1.5 0  6.25 1.5 0  6.5 1.5 0  6.75 1.5 0  7 1.5 0  7.25 1.5 0  7.5 1.5 0  7.75 1.5 0  8 1.5 0  8.25 1.5 0  8.5 1.5 0  8.75 1.5 0  9 1.5 0  9.25 1.5 0  9.5 1.5 0  9.75 1.5 0  10 1.5 0  10.25 1.5 0  10.5 1.5 0  10.75 1.5 0  11 1.5 0  11.25 1.5 0  11.5 1.5 0  11.75 1.5 0  12 1.5 0  12.25 1.5 0  12.5 1.5 0  12.75 1.5 0  13 1.5 0  13.25 1.5 0  13.5 1.5 0  13.75 1.5 0  14 1.5 0  14.25 1.5 0  14.5 1.5 0  14.75 1.5 0  15 1.5 0  15.25 1.5 0  15.5 1.5 0  15.75 1.5 0  16 1.5 0  16.25 1.5 0  16.5 1.5 0  16.75 1.5 0  17 1.5 0  17.25 1.5 0  17.5 1.5 0  17.75 1.5 0  18 1.5 0  18.25 1.5 0  18.5 1.5 0  18.75 1.5 0  19 1.5 0  19.25 1.5 0  19.5 1.5 0  19.75 1.5 0  20 1.5 0  20.25 1.5 0  20.5 1.5 0  20.75 1.5 0  21 1.5 0  21.25 1.5 0  21.5 1.5 0  21.75 1.5 0  22 1.5 0  22.25 1.5 0  22.5 1.5 0  22.75 1.5 0  23 1.5 0  23.25 1.5 0  23.5 1.5 0  23.75 1.5 0  24 1.5 0  24.25 1.5 0  24.5 1.5 0  24.75 1.5 0  25 1.5 0  0 1.75 0  0.25 1.75 0  0.5 1.75 0  0.75 1.75 0  1 1.75 0  1.25 1.75 0  1.5 1.75 0  1.75 1.75 0  2 1.75 0  2.25 1.75 0  2.5 1.75 0  2.75 1.75 0  3 1.75 0  3.25 1.75 0  3.5 1.75 0  3.75 1.75 0  4 1.75 0  4.25 1.75 0  4.5 1.75 0  4.75 1.75 0  5 1.75 0  5.25 1.75 0  5.5 1.75 0  5.75 1.75 0  6 1.75 0  6.25 1.75 0  6.5 1.75 0  6.75 1.75 0  7 1.75 0  7.25 1.75 0  7.5 1.75 0  7.75 1.75 0  8 1.75 0  8.25 1.75 0  8.5 1.75 0  8.75 1.75 0  9 1.75 0  9.25 1.75 0  9.5 1.75 0  9.75 1.75 0  10 1.75 0  10.25 1.75 0  10.5 1.75 0  10.75 1.75 0  11 1.75 0  11.25 1.75 0  11.5 1.75 0  11.75 1.75 0  12 1.75 0  12.25 1.75 0  12.5 1.75 0  12.75 1.75 0  13 1.75 0  13.25 1.75 0  13.5 1.75 0  13.75 1.75 0  14 1.75 0  14.25 1.75 0  14.5 1.75 0  14.75 1.75 0  15 1.75 0  15.25 1.75 0  15.5 1.75 0  15.75 1.75 0  16 1.75 0  16.25 1.75 0  16.5 1.75 0  16.75 1.75 0  17 1.75 0  17.25 1.75 0  17.5 1.75 0  17.75 1.75 0  18 1.75 0  18.25 1.75 0  18.5 1.75 0  18.75 1.75 0  19 1.75 0  19.25 1.75 0  19.5 1.75 0  19.75 1.75 0  20 1.75 0  20.25 1.75 0  20.5 1.75 0  20.75 1.75 0  21 1.75 0  21.25 1.75 0  21.5 1.75 0  21.75 1.75 0  22 1.75 0  22.25 1.75 0  22.5 1.75 0  22.75 1.75 0  23 1.75 0  23.25 1.75 0  23.5 1.75 0  23.75 1.75 0  24 1.75 0  24.25 1.75 0  24.5 1.75 0  24.75 1.75 0  25 1.75 0  0 2 0  0.25 2 0  0.5 2 0  0.75 2 0  1 2 0  1.25 2 0  1.5 2 0  1.75 2 0  2 2 0  2.25 2 0  2.5 2 0  2.75 2 0  3 2 0  3.25 2 0  3.5 2 0  3.75 2 0  4 2 0  4.25 2 0  4.5 2 0  4.75 2 0  5 2 0  5.25 2 0  5.5 2 0  5.75 2 0  6 2 0  6.25 2 0  6.5 2 0  6.75 2 0  7 2 0  7.25 2 0  7.5 2 0  7.75 2 0  8 2 0  8.25 2 0  8.5 2 0  8.75 2 0  9 2 0  9.25 2 0  9.5 2 0  9.75 2 0  10 2 0  10.25 2 0  10.5 2 0  10.75 2 0  11 2 0  11.25 2 0 
[...]
<PointData  Scalars="f_26"> 
<DataArray  type="Float64"  Name="f_26"  format="ascii">2.2280293123649455e-05  2.2295550675618321e-05  2.2331719370220964e-05  2.2388898093844643e-05  2.2465547838624287e-05  2.2559199482921035e-05  2.2666712307915654e-05  2.2784476902433052e-05  2.2908645617891191e-05  2.3035389921603583e-05  2.3161154684253346e-05  2.3282872334536344e-05  2.3398107390200128e-05  2.3505118154365496e-05  2.3602840246110325e-05  2.3690810074686006e-05  2.3769052450591104e-05  2.3837955683086252e-05  2.3898152222610053e-05  2.3950416043266864e-05  2.3995581676789238e-05  2.4034485184126590e-05  2.4067924576868569e-05  2.4096635962769474e-05  2.4121281499196035e-05  2.4142445638936394e-05  2.4160636805307263e-05  2.4176292325114385e-05  2.4189785067030459e-05  2.4201430735389076e-05  2.4211495150495115e-05  2.4220201120636240e-05  2.4227734699077394e-05  2.4234250742548271e-05  2.4239877764325149e-05  2.4244722119417228e-05  2.4248871582418281e-05  2.4252398388040616e-05  2.4255361805584079e-05  2.4257810315205026e-05  2.4259783448164036e-05  2.4261313346689037e-05  2.4262426092534685e-05  2.4263142847197271e-05  2.4263480841246409e-05  2.4263454245388338e-05  2.4263074951605074e-05  2.4262353288881046e-05  2.4261298694457254e-05  2.4259920358043299e-05  2.4258227852761527e-05  2.4256231762591445e-05  2.4253944311543355e-05  2.4251379994579075e-05  2.4248556204346973e-05  2.4245493841147984e-05  2.4242217886380375e-05  2.4238757912383204e-05  2.4235148494670008e-05  2.4231429486775553e-05  2.4227646114258880e-05  2.4223848843840983e-05  2.4220092987205126e-05  2.4216438007460600e-05  2.4212946510089494e-05  2.4209682919203756e-05  2.4206711863245219e-05  2.4204096320170773e-05  2.4201895598241609e-05  2.4200163251810476e-05  2.4198945048831307e-05  2.4198277115349501e-05  2.4198184379905310e-05  2.4198679426754540e-05  2.4199761841727026e-05  2.4201418100569317e-05  2.4203622010200733e-05  2.4206335672703058e-05  2.4209510904490451e-05  2.4213091012907080e-05  2.4217012812360810e-05  2.4221208753489383e-05  2.4225609041713091e-05  2.4230143634425717e-05  2.4234744026565678e-05  2.4239344759396280e-05  2.4243884613944194e-05  2.4248307475979985e-05  2.4252562881578612e-05  2.4256606269830311e-05  2.4260398981584714e-05  2.4263908050218254e-05  2.4267105832727595e-05  2.4269969527451036e-05  2.4272480618375828e-05  2.4274624273262311e-05  2.4276388694545371e-05  2.4277764341473636e-05  2.4278742655694767e-05  2.4279312743589349e-05  2.4279449142148463e-05  2.2293839844341849e-05  2.2306339400228662e-05  2.2341589108281734e-05  2.2398193502011982e-05  2.2474284803007209e-05  2.2567323514044441e-05  2.2674163891582251e-05  2.2791211748738649e-05  2.2914641785709938e-05  2.3040649241503047e-05  2.3165700747366352e-05  2.3286746378619507e-05  2.3401363234565891e-05  2.3507817124711079e-05  2.3605046714618741e-05  2.3692587918591533e-05  2.3770462487087497e-05  2.3839053993162958e-05  2.3898989212025153e-05  2.3951036074341378e-05  2.3996023115224143e-05  2.4034780726127265e-05  2.4068101746457804e-05  2.4096717693900990e-05  2.4121286740234880e-05  2.4142389937024812e-05  2.4160532844411022e-05  2.4176150403997444e-05  2.4189613512314951e-05  2.4201236250767370e-05  2.4211283106718711e-05  2.4219975792742089e-05  2.4227499457967532e-05  2.4234008207942015e-05  2.4239629925569487e-05  2.4244470429890911e-05  2.4248617032442683e-05  2.4252141560405919e-05  2.4255102917064811e-05  2.4257549246801755e-05  2.4259519766280345e-05  2.4261046317037161e-05  2.4262154688257892e-05  2.4262865752496869e-05  2.4263196451700750e-05  2.4263160666142982e-05  2.4262769994689593e-05  2.4262034471058792e-05  2.4260963237226419e-05  2.4259565191663246e-05  2.4257849626453290e-05  2.4255826863323021e-05  2.4253508894017214e-05  2.4250910025138988e-05  2.4248047521453361e-05  2.4244942234768477e-05  2.4241619198039407e-05  2.4238108156654626e-05  2.4234444001546120e-05  2.4230667062607795e-05  2.4226823216895881e-05  2.4222963765309766e-05  2.4219145034983873e-05  2.4215427673335803e-05  2.4211875614083585e-05  2.4208554715421833e-05  2.4205531095005162e-05  2.4202869213641998e-05  2.4200629787067862e-05  2.4198867629688141e-05  2.4197629552410879e-05  2.4196952445599318e-05  2.4196861675577286e-05  2.4197369908146512e-05  2.4198476445946160e-05  2.4200167130546370e-05  2.4202414818620483e-05  2.4205180398923670e-05  2.4208414277815058e-05  2.4212058229837369e-05  2.4216047489402151e-05  2.4220312951377583e-05  2.4224783352172887e-05  2.4229387317145805e-05  2.4234055182163460e-05  2.4238720523716751e-05  2.4243321359890170e-05  2.4247801010892181e-05  2.4252108630615216e-05  2.4256199438491661e-05  2.4260034693207029e-05  2.4263581456740291e-05  2.4266812199285984e-05  2.4269704293633556e-05  2.4272239442239816e-05  2.4274403072018479e-05  2.4276183721755466e-05  2.4277572442788526e-05  2.4278562289184005e-05  2.4279148417000958e-05  2.4279332020800995e-05  2.2325084909049373e-05  2.2336677554889647e-05  2.2370853046731286e-05  2.2426239601975378e-05  2.2500891777871462e-05  2.2592244223098948e-05  2.2697169708438132e-05  2.2812121838772040e-05  2.2933341257859138e-05  2.3057097683927058e-05  2.3179931712785150e-05  2.3298859048742825e-05  2.3411508522384551e-05  2.3516181061713054e-05  2.3611833857617064e-05  2.3698006840523796e-05  2.3774714508814544e-05  2.3842325468753033e-05  2.3901447072408073e-05  2.3952826004230652e-05  2.3997269638914652e-05  2.4035588528874478e-05  2.4068557683645436e-05  2.4096893085243367e-05  2.4121239679048328e-05  2.4142167451318559e-05  2.4160172824691995e-05  2.4175683265550944e-05  2.4189063592732532e-05  2.4200622962140730e-05  2.4210621870861470e-05  2.4219278790599387e-05  2.4226776223560053e-05  2.4233266094465665e-05  2.4238874467717185e-05  2.4243705622729421e-05  2.4247845543630558e-05  2.4251364889363749e-05  2.4254321511982672e-05  2.4256762588107410e-05  2.4258726423379603e-05  2.4260243983745864e-05  2.4261340201339823e-05  2.4262035097071255e-05  2.4262344756957129e-05  2.4262282194771903e-05  2.4261858129677208e-05  2.4261081703970284e-05  2.4259961162778216e-05  2.4258504514204208e-05  2.4256720184868711e-05  2.4254617681744466e-05  2.4252208266438225e-05  2.4249505642440490e-05  2.4246526649242101e-05  2.4243291949614411e-05  2.4239826687948294e-05  2.4236161088741257e-05  2.4232330955759069e-05  2.4228378024990508e-05  2.4224350119408435e-05  2.4220301052046802e-05  2.4216290227303863e-05  2.4212381899782443e-05  2.4208644066011213e-05  2.4205146986965296e-05  2.4201961367388655e-05  2.4199156249439815e-05  2.4196796710083296e-05  2.4194941480171180e-05  2.4193640624306180e-05  2.4192933430734262e-05  2.4192846657105218e-05  2.4193393259992181e-05  2.4194571704545208e-05  2.4196365908490099e-05  2.4198745826391865e-05  2.4201668631143021e-05  2.4205080405562768e-05  2.4208918222586405e-05  2.4213112471091170e-05  2.4217589277362151e-05  2.4222272879018396e-05  2.4227087826691138e-05  2.4231960915518666e-05  2.4236822779727098e-05  2.4241609115438742e-05  2.4246261526219315e-05  2.4250728010468858e-05  2.4254963128304993e-05  2.4258927897740361e-05  2.4262589476129936e-05  2.4265920683997661e-05  2.4268899425719316e-05  2.4271508056718957e-05  2.4273732742139459e-05  2.4275562852186714e-05  2.4276990457378050e-05  2.4278010057647085e-05  2.4278618874805292e-05  2.4278818313231108e-05  2.2374608084194190e-05  2.2385637768570292e-05  2.2418596204046136e-05  2.2472234877078413e-05  2.2544643001689507e-05  2.2633289367409454e-05  2.2735106885686122e-05  2.2846638354876518e-05  2.2964236493712033e-05  2.3084295061874176e-05  2.3203477712135228e-05  2.3318909956744801e-05  2.3428307975431128e-05  2.3530032781370531e-05  2.3623074058693247e-05  2.3706979832487221e-05  2.3781753560931728e-05  2.3847739587956996e-05  2.3905513280986740e-05  2.3955786103347019e-05  2.3999330243149560e-05  2.4036923225678552e-05  2.4069310378368886e-05  2.4097181839196691e-05  2.4121160576618779e-05  2.4141798216535023e-05  2.4159576042519363e-05  2.4174909154078894e-05  2.4188152328772263e-05  2.4199606594232546e-05  2.4209525868509807e-05  2.4218123282910150e-05  2.4225576978745583e-05  2.4232035286821694e-05  2.4237621272497215e-05  2.4242436672932534e-05  2.4246565276677929e-05  2.4250075806261872e-05  2.4253024366973760e-05  2.4255456523005590e-05  2.4257409057752946e-05  2.4258911469775697e-05  2.4259987250512524e-05  2.4260654984779821e-05  2.4260929310561268e-05  2.4260821770642733e-05  2.4260341585192269e-05  2.4259496371278796e-05  2.4258292832364338e-05  2.4256737437753931e-05  2.4254837108576784e-05  2.4252599922819041e-05  2.4250035846954870e-05  2.4247157495585248e-05  2.4243980913026960e-05  2.4240526361964894e-05  2.4236819094253727e-05  2.4232890068162180e-05  2.4228776565549461e-05  2.4224522652757821e-05  2.4220179421837005e-05  2.4215804945762396e-05  2.4211463884299950e-05  2.4207226687619516e-05  2.4203168363617531e-05  2.4199366802212681e-05  2.4195900684430753e-05  2.4192847043315593e-05  2.4190278583690747e-05  2.4188260903682051e-05  2.4186849787489636e-05  2.4186088751462270e-05  2.4186007020759616e-05  2.4186618090620618e-05  2.4187918985903252e-05  2.4189890279104146e-05  2.4192496866539467e-05  2.4195689441931735e-05  2.4199406553428309e-05  2.4203577090024349e-05  2.4208123020342349e-05  2.4212962202043571e-05  2.4218011092583558e-05  2.4223187218263700e-05  2.4228411293943286e-05  2.4233608925287363e-05  2.4238711864320109e-05  2.4243658823572155e-05  2.4248395881771503e-05  2.4252876533679136e-05  2.4257061448331966e-05  2.4260918004535166e-05  2.4264419671427699e-05  2.4267545297134747e-05  2.4270278361941929e-05  2.4272606246463083e-05  2.4274519563114450e-05  2.4276011605030778e-05  2.4277077981496885e-05  2.4277716504799527e-05  2.4277927205723195e-05  2.2441605756158122e-05  2.2452080755096669e-05  2.2483590792122815e-05  2.2534973008036130e-05  2.2604383859703967e-05  2.2689367604396537e-05  2.2786958606494055e-05  2.2893831891708683e-05  2.3006497713924199e-05  2.3121520138017263e-05  2.3235729919626667e-05  2.3346400949885878e-05  2.3451367285159280e-05  2.3549071154903866e-05  2.3638546436376880e-05  2.3719352567510967e-05  2.3791478624323507e-05  2.3855236648135042e-05  2.3911159143262233e-05  2.3959910185425814e-05  2.4002214479417955e-05  2.4038804870373274e-05  2.4070386444302812e-05  2.4097614234030520e-05  2.4121081303642555e-05  2.4141314255098524e-05  2.4158773706179800e-05  2.4173857848656758e-05  2.4186907710050338e-05  2.4198213168802909e-05  2.4208019102238470e-05  2.4216531288058286e-05  2.4223921848932423e-05  2.4230334142729169e-05  2.4235887073024886e-05  2.4240678837920350e-05  2.4244790159162452e-05  2.4248287044939368e-05  2.4251223143282920e-05  2.4253641742048871e-05  2.4255577468113330e-05  2.4257057734091516e-05  2.4258103976376382e-05  2.4258732724062052e-05  2.4258956534565531e-05  2.4258784828529541e-05  2.4258224653805762e-05  2.4257281405826787e-05  2.4255959529257618e-05  2.4254263223201674e-05  2.4252197169103978e-05  2.4249767296494053e-05  2.4246981596478631e-05  2.4243850986087094e-05  2.4240390217924093e-05  2.4236618818976153e-05  2.4232562029975468e-05  2.4228251702908078e-05  2.4223727099963505e-05  2.4219035523851089e-05  2.4214232698837561e-05  2.4209382816358462e-05  2.4204558161044413e-05  2.4199838244688722e-05  2.4195308398578208e-05  2.4191057809006852e-05  2.4187177025301760e-05  2.4183755020971534e-05  2.4180875941408405e-05  2.4178615719293047e-05  2.4177038774296303e-05  2.4176195030345931e-05  2.4176117477077213e-05  2.4176820470593023e-05  2.4178298914436322e-05  2.4180528390413047e-05  2.4183466229073738e-05  2.4187053431171821e-05  2.4191217283921855e-05  2.4195874467179252e-05  2.4200934419476825e-05  2.4206302733265453e-05  2.4211884370306200e-05  2.4217586526819302e-05  2.4223321027021415e-05  2.4229006176089098e-05  2.4234568053188701e-05  2.4239941267378381e-05  2.4245069231175604e-05  2.4249904027494385e-05  2.4254405956113240e-05  2.4258542847515685e-05  2.4262289227104807e-05  2.4265625403862380e-05  2.4268536546831225e-05  2.4271011802389786e-05  2.4273043496591548e-05  2.4274626459462489e-05  2.4275757495784120e-05  2.4276434987322857e-05  2.4276658496921415e-05  2.2524541536183382e-05  2.2534393969821340e-05  2.2564186770484193e-05  2.2612821591017993e-05  2.2678536503952584e-05  2.2758981826595209e-05  2.2851330765152517e-05  2.2952431194526814e-05  2.3058992638858956e-05  2.3167790085779750e-05  2.3275858494339589e-05  2.3380651568067695e-05  2.3480145518537763e-05  2.3572880307305686e-05  2.3657943019914229e-05  2.3734906967615323e-05  2.3803744106331811e-05  2.3864727729412298e-05  2.3918338732079238e-05  2.3965183941170735e-05  2.4005930506698509e-05  2.4041256937686617e-05  2.4071819221404926e-05  2.4098229419929985e-05  2.4121043875868523e-05  2.4140758366043824e-05  2.4157807972223756e-05  2.4172569928696093e-05  2.4185368165627386e-05  2.4196478652953668e-05  2.4206134951352903e-05  2.4214533600453786e-05  2.4221839132681984e-05  2.4228188608423315e-05  2.4233695637698083e-05  2.4238453896228336e-05  2.4242540168130578e-05  2.4246016959772248e-05  2.4248934734080782e-05  2.4251333814888565e-05  2.4253246008805086e-05  2.4254695988958200e-05  2.4255702481551560e-05  2.4256279293001510e-05  2.4256436212657585e-05  2.4256179823825369e-05  2.4255514253927576e-05  2.4254441892997697e-05  2.4252964108058583e-05  2.4251081978981463e-05  2.4248797078762317e-05  2.4246112317343869e-05  2.4243032862661104e-05  2.4239567145002968e-05  2.4235727940634302e-05  2.4231533517644562e-05  2.4227008811210263e-05  2.4222186577344401e-05  2.4217108454819421e-05  2.4211825846058489e-05  2.4206400511899878e-05  2.4200904765390337e-05  2.4195421149630233e-05  2.4190041497483039e-05  2.4184865299119579e-05  2.4179997347690756e-05  2.4175544692336968e-05  2.4171612996849295e-05  2.4168302474402184e-05  2.4165703634539662e-05  2.4163893127817978e-05  2.4162929996884278e-05  2.4162852633791767e-05  2.4163676699895929e-05  2.4165394189892021e-05  2.4167973723726816e-05  2.4171362041470767e-05  2.4175486570874092e-05  2.4180258848763986e-05  2.4185578516249228e-05  2.4191337579840525e-05  2.4197424636707055e-05  2.4203728798068971e-05  2.4210143102198484e-05  2.4216567277820448e-05  2.4222909790004180e-05  2.4229089165589718e-05  2.4235034647959629e-05  2.4240686268546756e-05  2.4245994444456109e-05  2.4250919219580631e-05  2.4255429263466594e-05  2.4259500731322098e-05  2.4263116073284242e-05  2.4266262864209211e-05  2.4268932708884067e-05  2.4271120262607780e-05  2.4272822392673394e-05  2.4274037488580245e-05  2.4274764900916357e-05  2.4275004449680947e-05  2.2621316022323201e-05  2.2630467855957364e-05  2.2658280695939933e-05  2.2703718380535000e-05  2.2765115322981704e-05  2.2840254939046465e-05  2.2926482944190346e-05  2.3020856230117837e-05  2.3120319311473535e-05  2.3221891142425437e-05  2.3322839599026809e-05  2.3420821511625236e-05  2.3513972682826068e-05  2.3600942418855839e-05  2.3680877286832440e-05  2.3753366185965134e-05  2.3818362049864072e-05  2.3876094884892057e-05  2.3926987721038234e-05  2.3971582954881777e-05  2.4010482704319091e-05  2.4044303829154597e-05  2.4073646374173479e-05  2.4099073232250980e-05  2.4121098548085804e-05  2.4140182525385627e-05  2.4156730651193770e-05  2.4171095767468397e-05  2.4183581818539275e-05  2.4194448443716161e-05  2.4203915854778499e-05  2.4212169641276007e-05  2.4219365292406915e-05  2.4225632324605507e-05  2.4231077970153129e-05  2.4235790423698845e-05  2.4239841668107083e-05  2.4243289914239200e-05  2.4246181695251917e-05  2.4248553657647929e-05  2.4250434090599644e-05  2.4251844233263144e-05  2.4252799397700099e-05  2.4253309943088247e-05  2.4253382135349778e-05  2.4253018925220711e-05  2.4252220677058201e-05  2.4250985880168091e-05  2.4249311873865530e-05  2.4247195616489197e-05  2.4244634526700172e-05  2.4241627422029350e-05  2.4238175574123573e-05  2.4234283891765583e-05  2.4229962230828705e-05  2.4225226814362552e-05  2.4220101725826434e-05  2.4214620414497905e-05  2.4208827125499832e-05  2.4202778139940937e-05  2.4196542686701594e-05  2.4190203370796254e-05  2.4183855959044941e-05  2.4177608376991690e-05  2.4171578805577278e-05  2.4165892823731142e-05  2.4160679622136264e-05  2.4156067408134976e-05  2.4152178222068375e-05  2.4149122477947240e-05  2.4146993611471779e-05  2.4145863252467658e-05  2.4145777327235840e-05  2.4146753436009463e-05  2.4148779746300639e-05  2.4151815506542727e-05  2.4155793133898671e-05  2.4160621685783710e-05  2.4166191405779208e-05  2.4172378955862385e-05  2.4179052915938345e-05  2.4186079148383074e-05  2.4193325682433655e-05  2.4200666858498108e-05  2.4207986571226495e-05  2.4215180548410367e-05  2.4222157689075616e-05  2.4228840551078419e-05  2.4235165122913441e-05  2.4241080036805929e-05  2.4246545383662942e-05  2.4251531279763620e-05  2.4256016315232368e-05  2.4259985989999346e-05  2.4263431217806605e-05  2.4266346955353731e-05  2.4268730993051374e-05  2.4270582925869765e-05  2.4271903306197015e-05  2.4272692964908468e-05  2.4272952477585597e-05  2.2729357565747758e-05  2.2737742252896949e-05  2.2763348498300915e-05  2.2805209559255985e-05  2.2861773352450333e-05  2.2930981630670262e-05  2.3010382117587153e-05  2.3097270831218006e-05  2.3188855251297841e-05  2.3282422434856211e-05  2.3375492708640732e-05  2.3465940907760220e-05  2.3552073028911312e-05  2.3632654619642578e-05  2.3706895514629593e-05  2.3774401431015212e-05  2.3835105459642675e-05  2.3889191917912119e-05  2.3937022426135576e-05  2.3979070667021715e-05  2.4015869057559816e-05  2.4047968046028614e-05  2.4075907101424040e-05  2.4100195597439205e-05  2.4121301507705265e-05  2.4139645910289105e-05  2.4155601572068542e-05  2.4169494225011775e-05  2.4181605482505189e-05  2.4192176637189682e-05  2.4201412818758372e-05  2.4209487171133656e-05  2.4216544840410493e-05  2.4222706657310338e-05  2.4228072459963820e-05  2.4232724042775362e-05  2.4236727741508134e-05  2.4240136678620832e-05  2.4242992700015081e-05  2.4245328037365740e-05  2.4247166730930826e-05  2.4248525847384654e-05  2.4249416526555842e-05  2.4249844890436721e-05  2.4249812847696237e-05  2.4249318827247411e-05  2.4248358475137418e-05  2.4246925349972182e-05  2.4245011652966128e-05  2.4242609029093154e-05  2.4239709475124635e-05  2.4236306387823302e-05  2.4232395780308488e-05  2.4227977685589402e-05  2.4223057752429082e-05  2.4217649019147567e-05  2.4211773825189587e-05  2.4205465788480987e-05  2.4198771740087879e-05  2.4191753469233226e-05  2.4184489095762288e-05  2.4177073859779450e-05  2.4169620106717069e-05  2.4162256258116005e-05  2.4155124600267378e-05  2.4148377797934575e-05  2.4142174147159726e-05  2.4136671712041746e-05  2.4132021631358812e-05  2.4128361012845489e-05  2.4125805934275368e-05  2.4124445121228963e-05  2.4124334857366341e-05  2.4125495599464567e-05  2.4127910623132450e-05  2.4131526833728657e-05  2.4136257666569366e-05  2.4141987800565998e-05  2.4148579247583492e-05  2.4155878276651576e-05  2.4163722597826432e-05  2.4171948263528158e-05  2.4180395833836807e-05  2.4188915477761252e-05  2.4197370823361847e-05  2.4205641505631090e-05  2.4213624476550054e-05  2.4221234227250196e-05  2.4228402124544721e-05  2.4235075085341506e-05  2.4241213808258208e-05  2.4246790759487836e-05  2.4251788077096225e-05  2.4256195520975542e-05  2.4260008559547485e-05  2.4263226652161833e-05  2.4265851759491232e-05  2.4267887093336708e-05  2.4269336101803806e-05  2.4270201676156735e-05  2.4270485564746979e-05  2.2845732867156076e-05  2.2853304776987874e-05  2.2876535039065643e-05  2.2914536811320206e-05  2.2965888764565515e-05  2.3028713102706652e-05  2.3100783368530785e-05  2.3179657151680365e-05  2.3262823845223044e-05  2.3347853134178786e-05  2.3432528033981339e-05  2.3514948141586950e-05  2.3593593948345377e-05  2.3667349978248190e-05  2.3735491091135719e-05  2.3797640886750637e-05  2.3853713065116641e-05  2.3903846089673080e-05  2.3948339389855549e-05  2.3987596585264137e-05  2.4022078573740824e-05  2.4052267236506747e