<?xml version="1.0"?>
<VTKFile type="UnstructuredGrid"  version="0.1"  >
<UnstructuredGrid>
<Piece  NumberOfPoints="10201" NumberOfCells="20000">
<Points>
<DataArray  type="Float64"  NumberOfComponents="3"  format="ascii">0 0 0  0.25 0 0  0.5 0 0  0.75 0 0  1 0 0  1.25 0 0  1.5 0 0  1.75 0 0  2 0 0  2.25 0 0  2.5 0 0  2.75 0 0  3 0 0  3.25 0 0  3.5 0 0  3.75 0 0  4 0 0  4.25 0 0  4.5 0 0  4.75 0 0  5 0 0  5.25 0 0  5.5 0 0  5.75 0 0  6 0 0  6.25 0 0  6.5 0 0  6.75 0 0  7 0 0  7.25 0 0  7.5 0 0  7.75 0 0  8 0 0  8.25 0 0  8.5 0 0  8.75 0 0  9 0 0  9.25 0 0  9.5 0 0  9.75 0 0  10 0 0  10.25 0 0  10.5 0 0  10.75 0 0  11 0 0  11.25 0 0  11.5 0 0  11.75 0 0  12 0 0  12.25 0 0  12.5 0 0  12.75 0 0  13 0 0  13.25 0 0  13.5 0 0  13.75 0 0  14 0 0  14.25 0 0  14.5 0 0  14.75 0 0  15 0 0  15.25 0 0  15.5 0 0  15.75 0 0  16 0 0  16.25 0 0  16.5 0 0  16.75 0 0  17 0 0  17.25 0 0  17.5 0 0  17.75 0 0  18 0 0  18.25 0 0  18.5 0 0  18.75 0 0  19 0 0  19.25 0 0  19.5 0 0  19.75 0 0  20 0 0  20.25 0 0  20.5 0 0  20.75 0 0  21 0 0  21.25 0 0  21.5 0 0  21.75 0 0  22 0 0  22.25 0 0  22.5 0 0  22.75 0 0  23 0 0  23.25 0 0  23.5 0 0  23.75 0 0  24 0 0  24.25 0 0  24.5 0 0  24.75 0 0  25 0 0  0 0.25 0  0.25 0.25 0  0.5 0.25 0  0.75 0.25 0  1 0.25 0  1.25 0.25 0  1.5 0.25 0  1.75 0.25 0  2 0.25 0  2.25 0.25 0  2.5 0.25 0  2.75 0.25 0  3 0.25 0  3.25 0.25 0  3.5 0.25 0  3.75 0.25 0  4 0.25 0  4.25 0.25 0  4.5 0.25 0  4.75 0.25 0  5 0.25 0  5.25 0.25 0  5.5 0.25 0  5.75 0.25 0  6 0.25 0  6.25 0.25 0  6.5 0.25 0  6.75 0.25 0  7 0.25 0  7.25 0.25 0  7.5 0.25 0  7.75 0.25 0  8 0.25 0  8.25 0.25 0  8.5 0.25 0  8.75 0.25 0  9 0.25 0  9.25 0.25 0  9.5 0.25 0  9.75 0.25 0  10 0.25 0  10.25 0.25 0  10.5 0.25 0  10.75 0.25 0  11 0.25 0  11.25 0.25 0  11.5 0.25 0  11.75 0.25 0  12 0.25 0  12.25 0.25 0  12.5 0.25 0  12.75 0.25 0  13 0.25 0  13.25 0.25 0  13.5 0.25 0  13.75 0.25 0  14 0.25 0  14.25 0.25 0  14.5 0.25 0  14.75 0.25 0  15 0.25 0  15.25 0.25 0  15.5 0.25 0  15.75 0.25 0  16 0.25 0  16.25 0.25 0  16.5 0.25 0  16.75 0.25 0  17 0.25 0  17.25 0.25 0  17.5 0.25 0  17.75 0.25 0  18 0.25 0  18.25 0.25 0  18.5 0.25 0  18.75 0.25 0  19 0.25 0  19.25 0.25 0  19.5 0.25 0  19.75 0.25 0  20 0.25 0  20.25 0.25 0  20.5 0.25 0  20.75 0.25 0  21 0.25 0  21.25 0.25 0  21.5 0.25 0  21.75 0.25 0  22 0.25 0  22.25 0.25 0  22.5 0.25 0  22.75 0.25 0  23 0.25 0  23.25 0.25 0  23.5 0.25 0  23.75 0.25 0  24 0.25 0  24.25 0.25 0  24.5 0.25 0  24.75 0.25 0  25 0.25 0  0 0.5 0  0.25 0.5 0  0.5 0.5 0  0.75 0.5 0  1 0.5 0  1.25 0.5 0  1.5 0.5 0  1.75 0.5 0  2 0.5 0  2.25 0.5 0  2.5 0.5 0  2.75 0.5 0  3 0.5 0  3.25 0.5 0  3.5 0.5 0  3.75 0.5 0  4 0.5 0  4.25 0.5 0  4.5 0.5 0  4.75 0.5 0  5 0.5 0  5.25 0.5 0  5.5 0.5 0  5.75 0.5 0  6 0.5 0  6.25 0.5 0  6.5 0.5 0  6.75 0.5 0  7 0.5 0  7.25 0.5 0  7.5 0.5 0  7.75 0.5 0  8 0.5 0  8.25 0.5 0  8.5 0.5 0  8.75 0.5 0  9 0.5 0  9.25 0.5 0  9.5 0.5 0  9.75 0.5 0  10 0.5 0  10.25 0.5 0  10.5 0.5 0  10.75 0.5 0  11 0.5 0  11.25 0.5 0  11.5 0.5 0  11.75 0.5 0  12 0.5 0  12.25 0.5 0  12.5 0.5 0  12.75 0.5 0  13 0.5 0  13.25 0.5 0  13.5 0.5 0  13.75 0.5 0  14 0.5 0  14.25 0.5 0  14.5 0.5 0  14.75 0.5 0  15 0.5 0  15.25 0.5 0  15.5 0.5 0  15.75 0.5 0  16 0.5 0  16.25 0.5 0  16.5 0.5 0  16.75 0.5 0  17 0.5 0  17.25 0.5 0  17.5 0.5 0  17.75 0.5 0  18 0.5 0  18.25 0.5 0  18.5 0.5 0  18.75 0.5 0  19 0.5 0  19.25 0.5 0  19.5 0.5 0  19.75 0.5 0  20 0.5 0  20.25 0.5 0  20.5 0.5 0  20.75 0.5 0  21 0.5 0  21.25 0.5 0  21.5 0.5 0  21.75 0.5 0  22 0.5 0  22.25 0.5 0  22.5 0.5 0  22.75 0.5 0  23 0.5 0  23.25 0.5 0  23.5 0.5 0  23.75 0.5 0  24 0.5 0  24.25 0.5 0  24.5 0.5 0  24.75 0.5 0  25 0.5 0  0 0.75 0  0.25 0.75 0  0.5 0.75 0  0.75 0.75 0  1 0.75 0  1.25 0.75 0  1.5 0.75 0  1.75 0.75 0  2 0.75 0  2.25 0.75 0  2.5 0.75 0  2.75 0.75 0  3 0.75 0  3.25 0.75 0  3.5 0.75 0  3.75 0.75 0  4 0.75 0  4.25 0.75 0  4.5 0.75 0  4.75 0.75 0  5 0.75 0  5.25 0.75 0  5.5 0.75 0  5.75 0.75 0  6 0.75 0  6.25 0.75 0  6.5 0.75 0  6.75 0.75 0  7 0.75 0  7.25 0.75 0  7.5 0.75 0  7.75 0.75 0  8 0.75 0  8.25 0.75 0  8.5 0.75 0  8.75 0.75 0  9 0.75 0  9.25 0.75 0  9.5 0.75 0  9.75 0.75 0  10 0.75 0  10.25 0.75 0  10.5 0.75 0  10.75 0.75 0  11 0.75 0  11.25 0.75 0  11.5 0.75 0  11.75 0.75 0  12 0.75 0  12.25 0.75 0  12.5 0.75 0  12.75 0.75 0  13 0.75 0  13.25 0.75 0  13.5 0.75 0  13.75 0.75 0  14 0.75 0  14.25 0.75 0  14.5 0.75 0  14.75 0.75 0  15 0.75 0  15.25 0.75 0  15.5 0.75 0  15.75 0.75 0  16 0.75 0  16.25 0.75 0  16.5 0.75 0  16.75 0.75 0  17 0.75 0  17.25 0.75 0  17.5 0.75 0  17.75 0.75 0  18 0.75 0  18.25 0.75 0  18.5 0.75 0  18.75 0.75 0  19 0.75 0  19.25 0.75 0  19.5 0.75 0  19.75 0.75 0  20 0.75 0  20.25 0.75 0  20.5 0.75 0  20.75 0.75 0  21 0.75 0  21.25 0.75 0  21.5 0.75 0  21.75 0.75 0  22 0.75 0  22.25 0.75 0  22.5 0.75 0  22.75 0.75 0  23 0.75 0  23.25 0.75 0  23.5 0.75 0  23.75 0.75 0  24 0.75 0  24.25 0.75 0  24.5 0.75 0  24.75 0.75 0  25 0.75 0  0 1 0  0.25 1 0  0.5 1 0  0.75 1 0  1 1 0  1.25 1 0  1.5 1 0  1.75 1 0  2 1 0  2.25 1 0  2.5 1 0  2.75 1 0  3 1 0  3.25 1 0  3.5 1 0  3.75 1 0  4 1 0  4.25 1 0  4.5 1 0  4.75 1 0  5 1 0  5.25 1 0  5.5 1 0  5.75 1 0  6 1 0  6.25 1 0  6.5 1 0  6.75 1 0  7 1 0  7.25 1 0  7.5 1 0  7.75 1 0  8 1 0  8.25 1 0  8.5 1 0  8.75 1 0  9 1 0  9.25 1 0  9.5 1 0  9.75 1 0  10 1 0  10.25 1 0  10.5 1 0  10.75 1 0  11 1 0  11.25 1 0  11.5 1 0  11.75 1 0  12 1 0  12.25 1 0  12.5 1 0  12.75 1 0  13 1 0  13.25 1 0  13.5 1 0  13.75 1 0  14 1 0  14.25 1 0  14.5 1 0  14.75 1 0  15 1 0  15.25 1 0  15.5 1 0  15.75 1 0  16 1 0  16.25 1 0  16.5 1 0  16.75 1 0  17 1 0  17.25 1 0  17.5 1 0  17.75 1 0  18 1 0  18.25 1 0  18.5 1 0  18.75 1 0  19 1 0  19.25 1 0  19.5 1 0  19.75 1 0  20 1 0  20.25 1 0  20.5 1 0  20.75 1 0  21 1 0  21.25 1 0  21.5 1 0  21.75 1 0  22 1 0  22.25 1 0  22.5 1 0  22.75 1 0  23 1 0  23.25 1 0  23.5 1 0  23.75 1 0  24 1 0  24.25 1 0  24.5 1 0  24.75 1 0  25 1 0  0 1.25 0  0.25 1.25 0  0.5 1.25 0  0.75 1.25 0  1 1.25 0  1.25 1.25 0  1.5 1.25 0  1.75 1.25 0  2 1.25 0  2.25 1.25 0  2.5 1.25 0  2.75 1.25 0  3 1.25 0  3.25 1.25 0  3.5 1.25 0  3.75 1.25 0  4 1.25 0  4.25 1.25 0  4.5 1.25 0  4.75 1.25 0  5 1.25 0  5.25 1.25 0  5.5 1.25 0  5.75 1.25 0  6 1.25 0  6.25 1.25 0  6.5 1.25 0  6.75 1.25 0  7 1.25 0  7.25 1.25 0  7.5 1.25 0  7.75 1.25 0  8 1.25 0  8.25 1.25 0  8.5 1.25 0  8.75 1.25 0  9 1.25 0  9.25 1.25 0  9.5 1.25 0  9.75 1.25 0  10 1.25 0  10.25 1.25 0  10.5 1.25 0  10.75 1.25 0  11 1.25 0  11.25 1.25 0  11.5 1.25 0  11.75 1.25 0  12 1.25 0  12.25 1.25 0  12.5 1.25 0  12.75 1.25 0  13 1.25 0  13.25 1.25 0  13.5 1.25 0  13.75 1.25 0  14 1.25 0  14.25 1.25 0  14.5 1.25 0  14.75 1.25 0  15 1.25 0  15.25 1.25 0  15.5 1.25 0  15.75 1.25 0  16 1.25 0  16.25 1.25 0  16.5 1.25 0  16.75 1.25 0  17 1.25 0  17.25 1.25 0  17.5 1.25 0  17.75 1.25 0  18 1.25 0  18.25 1.25 0  18.5 1.25 0  18.75 1.25 0  19 1.25 0  19.25 1.25 0  19.5 1.25 0  19.75 1.25 0  20 1.25 0  20.25 1.25 0  20.5 1.25 0  20.75 1.25 0  21 1.25 0  21.25 1.25 0  21.5 1.25 0  21.75 1.25 0  22 1.25 0  22.25 1.25 0  22.5 1.25 0  22.75 1.25 0  23 1.25 0  23.25 1.25 0  23.5 1.25 0  23.75 1.25 0  24 1.25 0  24.25 1.25 0  24.5 1.25 0  24.75 1.25 0  25 1.25 0  0 1.5 0  0.25 1.5 0  0.5 1.5 0  0.75 1.5 0  1 1.5 0  1.25 1.5 0  1.5 1.5 0  1.75 1.5 0  2 1.5 0  2.25 1.5 0  2.5 1.5 0  2.75 1.5 0  3 1.5 0  3.25 1.5 0  3.5 1.5 0  3.75 1.5 0  4 1.5 0  4.25 1.5 0  4.5 1.5 0  4.75 1.5 0  5 1.5 0  5.25 1.5 0  5.5 1.5 0  5.75 1.5 0  6 1.5 0  6.25 1.5 0  6.5 1.5 0  6.75 1.5 0  7 1.5 0  7.25 1.5 0  7.5 1.5 0  7.75 1.5 0  8 1.5 0  8.25 1.5 0  8.5 1.5 0  8.75 1.5 0  9 1.5 0  9.25 1.5 0  9.5 1.5 0  9.75 1.5 0  10 1.5 0  10.25 1.5 0  10.5 1.5 0  10.75 1.5 0  11 1.5 0  11.25 1.5 0  11.5 1.5 0  11.75 1.5 0  12 1.5 0  12.25 1.5 0  12.5 1.5 0  12.75 1.5 0  13 1.5 0  13.25 1.5 0  13.5 1.5 0  13.75 1.5 0  14 1.5 0  14.25 1.5 0  14.5 1.5 0  14.75 1.5 0  15 1.5 0  15.25 1.5 0  15.5 1.5 0  15.75 1.5 0  16 1.5 0  16.25 1.5 0  16.5 1.5 0  16.75 1.5 0  17 1.5 0  17.25 1.5 0  17.5 1.5 0  17.75 1.5 0  18 1.5 0  18.25 1.5 0  18.5 1.5 0  18.75 1.5 0  19 1.5 0  19.25 1.5 0  19.5 1.5 0  19.75 1.5 0  20 1.5 0  20.25 1.5 0  20.5 1.5 0  20.75 1.5 0  21 1.5 0  21.25 1.5 0  21.5 1.5 0  21.75 1.5 0  22 1.5 0  22.25 1.5 0  22.5 1.5 0  22.75 1.5 0  23 1.5 0  23.25 1.5 0  23.5 1.5 0  23.75 1.5 0  24 1.5 0  24.25 1.5 0  24.5 1.5 0  24.75 1.5 0  25 1.5 0  0 1.75 0  0.25 1.75 0  0.5 1.75 0  0.75 1.75 0  1 1.75 0  1.25 1.75 0  1.5 1.75 0  1.75 1.75 0  2 1.75 0  2.25 1.75 0  2.5 1.75 0  2.75 1.75 0  3 1.75 0  3.25 1.75 0  3.5 1.75 0  3.75 1.75 0  4 1.75 0  4.25 1.75 0  4.5 1.75 0  4.75 1.75 0  5 1.75 0  5.25 1.75 0  5.5 1.75 0  5.75 1.75 0  6 1.75 0  6.25 1.75 0  6.5 1.75 0  6.75 1.75 0  7 1.75 0  7.25 1.75 0  7.5 1.75 0  7.75 1.75 0  8 1.75 0  8.25 1.75 0  8.5 1.75 0  8.75 1.75 0  9 1.75 0  9.25 1.75 0  9.5 1.75 0  9.75 1.75 0  10 1.75 0  10.25 1.75 0  10.5 1.75 0  10.75 1.75 0  11 1.75 0  11.25 1.75 0  11.5 1.75 0  11.75 1.75 0  12 1.75 0  12.25 1.75 0  12.5 1.75 0  12.75 1.75 0  13 1.75 0  13.25 1.75 0  13.5 1.75 0  13.75 1.75 0  14 1.75 0  14.25 1.75 0  14.5 1.75 0  14.75 1.75 0  15 1.75 0  15.25 1.75 0  15.5 1.75 0  15.75 1.75 0  16 1.75 0  16.25 1.75 0  16.5 1.75 0  16.75 1.75 0  17 1.75 0  17.25 1.75 0  17.5 1.75 0  17.75 1.75 0  18 1.75 0  18.25 1.75 0  18.5 1.75 0  18.75 1.75 0  19 1.75 0  19.25 1.75 0  19.5 1.75 0  19.75 1.75 0  20 1.75 0  20.25 1.75 0  20.5 1.75 0  20.75 1.75 0  21 1.75 0  21.25 1.75 0  21.5 1.75 0  21.75 1.75 0  22 1.75 0  22.25 1.75 0  22.5 1.75 0  22.75 1.75 0  23 1.75 0  23.25 1.75 0  23.5 1.75 0  23.75 1.75 0  24 1.75 0  24.25 1.75 0  24.5 1.75 0  24.75 1.75 0  25 1.75 0  0 2 0  0.25 2 0  0.5 2 0  0.75 2 0  1 2 0  1.25 2 0  1.5 2 0  1.75 2 0  2 2 0  2.25 2 0  2.5 2 0  2.75 2 0  3 2 0  3.25 2 0  3.5 2 0  3.75 2 0  4 2 0  4.25 2 0  4.5 2 0  4.75 2 0  5 2 0  5.25 2 0  5.5 2 0  5.75 2 0  6 2 0  6.25 2 0  6.5 2 0  6.75 2 0  7 2 0  7.25 2 0  7.5 2 0  7.75 2 0  8 2 0  8.25 2 0  8.5 2 0  8.75 2 0  9 2 0  9.25 2 0  9.5 2 0  9.75 2 0  10 2 0  10.25 2 0  10.5 2 0  10.75 2 0  11 2 0  11.25 2 0 
[...]
<PointData  Scalars="f_26"> 
<DataArray  type="Float64"  Name="f_26"  format="ascii">2.6791614246668149e-05  2.6764616405299416e-05  2.6703041919432777e-05  2.6602152785975431e-05  2.6458778443985999e-05  2.6270774414048548e-05  2.6037953847172737e-05  2.5763389588557914e-05  2.5454423697442745e-05  2.5122651880984805e-05  2.4782743297535956e-05  2.4452334052936750e-05  2.4152175295380488e-05  2.3894133557511190e-05  2.3669627607152568e-05  2.3476915999657381e-05  2.3318506796796707e-05  2.3195926723805371e-05  2.3108416496888688e-05  2.3052626434484586e-05  2.3023335238672352e-05  2.3014570191002866e-05  2.3020453864682782e-05  2.3035708910376557e-05  2.3056030784303442e-05  2.3078383178295054e-05  2.3101108303920666e-05  2.3123791666465600e-05  2.3146946164194029e-05  2.3171627582091081e-05  2.3199059594005050e-05  2.3230300520991728e-05  2.3265967603801945e-05  2.3306041606709834e-05  2.3349778858038265e-05  2.3395743113826505e-05  2.3441942247372870e-05  2.3486032517649386e-05  2.3525546811700583e-05  2.3558110877072450e-05  2.3581625595796503e-05  2.3594407362968514e-05  2.3595288916552155e-05  2.3583688082651008e-05  2.3559652106417682e-05  2.3523881694513798e-05  2.3477732891934795e-05  2.3423187643938079e-05  2.3362776867614307e-05  2.3299435749857690e-05  2.3236274547408458e-05  2.3176266062854541e-05  2.3121886958077535e-05  2.3074793583609271e-05  2.3035633721663710e-05  2.3004063358232904e-05  2.2978957371971561e-05  2.2958723647125976e-05  2.2941604843305465e-05  2.2925886053823159e-05  2.2909987239899999e-05  2.2892443085552471e-05  2.2871839390464747e-05  2.2846540574774808e-05  2.2814830223828008e-05  2.2772911346321859e-05  2.2719749800809258e-05  2.2633106784221475e-05  2.2540566351220503e-05  2.2217220081017234e-05  2.1852866717029784e-05  2.2102225960890735e-05  2.2450449090131121e-05  2.2835109916214000e-05  2.3235254691443595e-05  2.3627281734843397e-05  2.3989947785019504e-05  2.4307856488447008e-05  2.4573623087311815e-05  2.4787138927678615e-05  2.4953272007679516e-05  2.5079356341413654e-05  2.5173260454814682e-05  2.5242233641255926e-05  2.5292392378249790e-05  2.5328615999153117e-05  2.5354654041309848e-05  2.5373315280830884e-05  2.5386667115923095e-05  2.5396212883183374e-05  2.5403036623975371e-05  2.5407915514905937e-05  2.5411404472646065e-05  2.5413898501054956e-05  2.5415677972828932e-05  2.5416941159476405e-05  2.5417827373814860e-05  2.5418433234181761e-05  2.5418823815206187e-05  2.5419039666489228e-05  2.5419099153591772e-05  2.6755245569638236e-05  2.6733759318781445e-05  2.6673216602485223e-05  2.6572306239255463e-05  2.6428756394146284e-05  2.6240797875592574e-05  2.6008488548311841e-05  2.5735057351064405e-05  2.5427867929323676e-05  2.5098350413009928e-05  2.4761050001055487e-05  2.4433424185099455e-05  2.4135618725494059e-05  2.3879855432232234e-05  2.3656593095913455e-05  2.3464387688574885e-05  2.3306631280654609e-05  2.3185007683868515e-05  2.3098883764843616e-05  2.3044847147087100e-05  2.3017448625109636e-05  2.3010445273132854e-05  2.3017767132864072e-05  2.3034065945534942e-05  2.3055065737166509e-05  2.3077813155293449e-05  2.3100748102638870e-05  2.3123542926585626e-05  2.3146774699476822e-05  2.3171539328352546e-05  2.3199081235965331e-05  2.3230466929407909e-05  2.3266315531601214e-05  2.3306607615325059e-05  2.3350599003406794e-05  2.3396852427020474e-05  2.3443373123715402e-05  2.3487812150454626e-05  2.3527694339637618e-05  2.3560634928236362e-05  2.3584522608571303e-05  2.3597660679001631e-05  2.3598868359349873e-05  2.3587549657659028e-05  2.3563737602667937e-05  2.3528118295074669e-05  2.3482033332496580e-05  2.3427451867664076e-05  2.3366896318975573e-05  2.3303301207265845e-05  2.3239787522770671e-05  2.3179352214542392e-05  2.3124507968307572e-05  2.3076952689788641e-05  2.3037371273080801e-05  2.3005442898539235e-05  2.2980047507662264e-05  2.2959582621393470e-05  2.2942271831228864e-05  2.2926379459630974e-05  2.2910305571762357e-05  2.2892571985981115e-05  2.2871739116089863e-05  2.2846201697466855e-05  2.2814067378681223e-05  2.2772145809533238e-05  2.2717055323040314e-05  2.2635001648618212e-05  2.2526716152902755e-05  2.2238566455348783e-05  2.1864299589366732e-05  2.2102311046166162e-05  2.2449916020337265e-05  2.2834172854638337e-05  2.3234056505437050e-05  2.3626151944525135e-05  2.3989215782279852e-05  2.4307605512583090e-05  2.4573772096570374e-05  2.4787539231810196e-05  2.4953779877111122e-05  2.5079868202376655e-05  2.5173717774776669e-05  2.5242612787604371e-05  2.5292691333182203e-05  2.5328843586729858e-05  2.5354822964886899e-05  2.5373438332742250e-05  2.5386755479549495e-05  2.5396275619497151e-05  2.5403080739218378e-05  2.5407946261026857e-05  2.5411425701439958e-05  2.5413912991740710e-05  2.5415687705306807e-05  2.5416947531777021e-05  2.5417831377665334e-05  2.5418435626347328e-05  2.5418825412516175e-05  2.5419042313762240e-05  2.5419109988159194e-05  2.6665606543288441e-05  2.6645202488442219e-05  2.6584784270685675e-05  2.6483307459230439e-05  2.6339114155428030e-05  2.6151074656074262e-05  2.5919872528291185e-05  2.5649262418987888e-05  2.5346877381262557e-05  2.5024002455652506e-05  2.4694978210252419e-05  2.4376945489191316e-05  2.4089170907813779e-05  2.3840569017992232e-05  2.3621763198367253e-05  2.3433922106008877e-05  2.3280650796200768e-05  2.3163551655869929e-05  2.3081878404483504e-05  2.3031970704281292e-05  2.3008136631069913e-05  2.3003979657157903e-05  2.3013399289691207e-05  2.3031124330361152e-05  2.3053023178104341e-05  2.3076308409333300e-05  2.3099571102722232e-05  2.3122601645728266e-05  2.3146060052038336e-05  2.3171096905387149e-05  2.3198991474288104e-05  2.3230831646049606e-05  2.3267248143478509e-05  2.3308225125930885e-05  2.3353014737370983e-05  2.3400169132282469e-05  2.3447676520686372e-05  2.3493165321039282e-05  2.3534133375296842e-05  2.3568165963953347e-05  2.3593119974814770e-05  2.3607265670797969e-05  2.3609388156701676e-05  2.3598856189270767e-05  2.3575666540867836e-05  2.3540468845945711e-05  2.3494569988403277e-05  2.3439909700652583e-05  2.3378991476797312e-05  2.3314747734241167e-05  2.3250320305527259e-05  2.3188753853274403e-05  2.3132634938015306e-05  2.3083753767201158e-05  2.3042890497315075e-05  2.3009802943948688e-05  2.2983417332629494e-05  2.2962140365677477e-05  2.2944174454222328e-05  2.2927744910414018e-05  2.2911207053718197e-05  2.2893039000092746e-05  2.2871764929067565e-05  2.2845735131962837e-05  2.2813063360315746e-05  2.2770360250819793e-05  2.2714769405916332e-05  2.2630550429339811e-05  2.2523051498973913e-05  2.2228761447647849e-05  2.1867270202444016e-05  2.2102815593668675e-05  2.2449735864060053e-05  2.2833688499637419e-05  2.3233423422014000e-05  2.3625539351107414e-05  2.3988780759959046e-05  2.4307415125228168e-05  2.4573805589966094e-05  2.4787727835859072e-05  2.4954046595109378e-05  2.5080151512523136e-05  2.5173978906505539e-05  2.5242833059954885e-05  2.5292865946366507e-05  2.5328975629991992e-05  2.5354919042587982e-05  2.5373505889452592e-05  2.5386801412625265e-05  2.5396305711718272e-05  2.5403099547737831e-05  2.5407957225155974e-05  2.5411431331988533e-05  2.5413915071315819e-05  2.5415687469074116e-05  2.5416945821274012e-05  2.5417828775079906e-05  2.5418432591130736e-05  2.5418822459925895e-05  2.5419040251158135e-05  2.5419109736191005e-05  2.6518362384940644e-05  2.6498086815617313e-05  2.6437235740252878e-05  2.6334955611345421e-05  2.6190218406016449e-05  2.6002737216835253e-05  2.5774095250123602e-05  2.5508805069687480e-05  2.5214824931670438e-05  2.4903280313661191e-05  2.4588302864670557e-05  2.4286469642035708e-05  2.4015073732253795e-05  2.3777319733017619e-05  2.3566469447365571e-05  2.3386693591092549e-05  2.3241414621636215e-05  2.3132203963033821e-05  2.3057981896400128e-05  2.3014640294238701e-05  2.2996144935397473e-05  2.2995971350118923e-05  2.3008107721056278e-05  2.3027518594576954e-05  2.3050370361108590e-05  2.3074162945147575e-05  2.3097718339594980e-05  2.3120988200607673e-05  2.3144734983176484e-05  2.3170172269502849e-05  2.3198619092488524e-05  2.3231188795029962e-05  2.3268526273929632e-05  2.3310618828508261e-05  2.3356710504682352e-05  2.3405334416287458e-05  2.3454449780773234e-05  2.3501647760310306e-05  2.3544382858399975e-05  2.3580193105399334e-05  2.3606885820379356e-05  2.3622680113640761e-05  2.3626308356671672e-05  2.3617084695597630e-05  2.3594949413975766e-05  2.3560494762375050e-05  2.3514972055311981e-05  2.3460272375406381e-05  2.3398865253532379e-05  2.3333673628346597e-05  2.3267864275901361e-05  2.3204548272089869e-05  2.3146420555286110e-05  2.3095411983319741e-05  2.3052453972401834e-05  2.3017436435009043e-05  2.2989371768847020e-05  2.2966695241177464e-05  2.2947586889205280e-05  2.2930216655857868e-05  2.2912869838289210e-05  2.2893953402237332e-05  2.2871920647323122e-05  2.2845060762116579e-05  2.2811389344254088e-05  2.2767486756499410e-05  2.2710156039077653e-05  2.2623778361220041e-05  2.2512607379959693e-05  2.2210275854877334e-05  2.1868420814798445e-05  2.2103504355448947e-05  2.2449787459998461e-05  2.2833476880354439e-05  2.3233062917341821e-05  2.3625133583646574e-05  2.3988426249435872e-05  2.4307170145553038e-05  2.4573680815407407e-05  2.4787700692318663e-05  2.4954081679823172e-05  2.5080215671133341e-05  2.5174048161953080e-05  2.5242893469411164e-05  2.5292911495839873e-05  2.5329005427214746e-05  2.5354934926071248e-05  2.5373510778884333e-05  2.5386798337084791e-05  2.5396297328115859e-05  2.5403087965188834e-05  2.5407943996947268e-05  2.5411417525569136e-05  2.5413901364734112e-05  2.5415674247954001e-05  2.5416933266437565e-05  2.5417816940377435e-05  2.5418421474931063e-05  2.5418812065723124e-05  2.5419030584847695e-05  2.5419100539227709e-05  2.6311880474423753e-05  2.6291710307696107e-05  2.6230573857211273e-05  2.6128032078971052e-05  2.5983834451570174e-05  2.5798702040774970e-05  2.5575260401524154e-05  2.5318799066745457e-05  2.5037491161722646e-05  2.4742414386352954e-05  2.4447346656604313e-05  2.4167811815687239e-05  2.3916654557663906e-05  2.3691576398137865e-05  2.3491994143145598e-05  2.3323757396834083e-05  2.3189981432502881e-05  2.3092064295631829e-05  2.3028267990177345e-05  2.2993803410849169e-05  2.2982216123058328e-05  2.2986939962206655e-05  2.3002220322957636e-05  2.3023433154171527e-05  2.3047188724111328e-05  2.3071379775910481e-05  2.3095126335213621e-05  2.3118578523595506e-05  2.3142619121948143e-05  2.3168532453626111e-05  2.3197680719992146e-05  2.3231204251115297e-05  2.3269762106210598e-05  2.3313342713536131e-05  2.3361177586620775e-05  2.3411773772919558e-05  2.3463051963779619e-05  2.3512554375026687e-05  2.3557678914320824e-05  2.3595902191712431e-05  2.3624967361318202e-05  2.3643027533784054e-05  2.3648747113925167e-05  2.3641369673121642e-05  2.3620761904496505e-05  2.3587440144031420e-05  2.3542580236375541e-05  2.3488004081303247e-05  2.3426127886346640e-05  2.3359850065974708e-05  2.3292355855098420e-05  2.3226829124393411e-05  2.3166095210273139e-05  2.3112263155835083e-05  2.3066464803647474e-05  2.3028774914184518e-05  2.2998337542799303e-05  2.2973645275243617e-05  2.2952864102720875e-05  2.2934099179063461e-05  2.2915544782505050e-05  2.2895509415531290e-05  2.2872346433763530e-05  2.2844248664417386e-05  2.2809104444238097e-05  2.2763389340330668e-05  2.2703548512509894e-05  2.2613930529017940e-05  2.2497067123013279e-05  2.2186011732561080e-05  2.1869293106379872e-05  2.2104211033538203e-05  2.2449770679123679e-05  2.2833170277246035e-05  2.3232568444521255e-05  2.3624539726851078e-05  2.3987820939648094e-05  2.4306620660167311e-05  2.4573221607490164e-05  2.4787337178159821e-05  2.4953801692326958e-05  2.5080000549499008e-05  2.5173879886789579e-05  2.5242757794118210e-05  2.5292798453899604e-05  2.5328908607683082e-05  2.5354850424662038e-05  2.5373436263081381e-05  2.5386732364005663e-05  2.5396238907416970e-05  2.5403036308273510e-05  2.5407898389441841e-05  2.5411377273041236e-05  2.5413865777576122e-05  2.5415642644705839e-05  2.5416904984234685e-05  2.5417791346683180e-05  2.5418397975732731e-05  2.5418790099519396e-05  2.5419009576171038e-05  2.5419079776541135e-05  2.6047702230985221e-05  2.6027972965340037e-05  2.5967381853171300e-05  2.5866059660792012e-05  2.5724637641482455e-05  2.5544894616128303e-05  2.5330430321714202e-05  2.5087107942208888e-05  2.4823349068658235e-05  2.4550190536251819e-05  2.4280567066614312e-05  2.4027544180402697e-05  2.3796490831477825e-05  2.3585656341415322e-05  2.3401036593844330e-05  2.3247961973308167e-05  2.3129407068836746e-05  2.3046191449469677e-05  2.2995523505395903e-05  2.2971732091487124e-05  2.2968006961255019e-05  2.2977971366129165e-05  2.2996373571059887e-05  2.3019188520887931e-05  2.3043592052749389e-05  2.3067940143681785e-05  2.3091686831420229e-05  2.3115196279422628e-05  2.3139476796617867e-05  2.3165884294588329e-05  2.3195823493041916e-05  2.3230460461300450e-05  2.3270466602194622e-05  2.3315828903831258e-05  2.3365762812718570e-05  2.3418744500067449e-05  2.3472649720994997e-05  2.3524963642672301e-05  2.3573018065461968e-05  2.3614217784036340e-05  2.3646230994883886e-05  2.3667133847207083e-05  2.3675511552635239e-05  2.3670525239849297e-05  2.3651954929864147e-05  2.3620226086848801e-05  2.3576421663729286e-05  2.3522274270511944e-05  2.3460124643456769e-05  2.3392824608229080e-05  2.3323559803105211e-05  2.3255577945904063e-05  2.3191839513369150e-05  2.3134652546203591e-05  2.3085385547839504e-05  2.3044345296057773e-05  2.3010856595884629e-05  2.2983509039956603e-05  2.2960476504063001e-05  2.2939801837113490e-05  2.2919575282273267e-05  2.2897984244606323e-05  2.2873253936759555e-05  2.2843451136114669e-05  2.2806294250173664e-05  2.2758138784188245e-05  2.2694909081939673e-05  2.2601213435040962e-05  2.2476482823668006e-05  2.2158274686388243e-05  2.1870565119431467e-05  2.2104627926201314e-05  2.2449242747743162e-05  2.2832263406177306e-05  2.3231412791899544e-05  2.3623250413696527e-05  2.3986515359005898e-05  2.4305395393096521e-05  2.4572136533191831e-05  2.4786415633159098e-05  2.4953040388538013e-05  2.5079381520141836e-05  2.5173379889835898e-05  2.5242353990339056e-05  2.5292471025116441e-05  2.5328641461125335e-05  2.5354630939793221e-05  2.5373254686038981e-05  2.5386581163256920e-05  2.5396112219908017e-05  2.5402929508207710e-05  2.5407807769389316e-05  2.5411299813715810e-05  2.5413798982393879e-05  2.5415584419631859e-05  2.5416853548370223e-05  2.5417745162747764e-05  2.5418355691189369e-05  2.5418750488367184e-05  2.5418971470755273e-05  2.5419041989311637e-05  2.5732246678094486e-05  2.5713439113535009e-05  2.5654773314230717e-05  2.5556979288834700e-05  2.5421528311288556e-05  2.5251089370616403e-05  2.5049982807585342e-05  2.4824604108213199e-05  2.4583599710810493e-05  2.4337415947998685e-05  2.4096978981883001e-05  2.3869681784998695e-05  2.3656481958633937e-05  2.3463238062714479e-05  2.3297458987972874e-05  2.3163455538668647e-05  2.3064002882353337e-05  2.2998645325970404e-05  2.2963136589642432e-05  2.2950916222213606e-05  2.2955143881481209e-05  2.2970014078223208e-05  2.2991050183578281e-05  2.3014975585524055e-05  2.3039598577486552e-05  2.3063760016644358e-05  2.3087248734785608e-05  2.3110636739586564e-05  2.3135051108128764e-05  2.3161913955461958e-05  2.3192668450507417e-05  2.3228503148619789e-05  2.3270099103527972e-05  2.3317439736797225e-05  2.3369722760678156e-05  2.3425391745337653e-05  2.3482274953240798e-05  2.3537796552011750e-05  2.3589216856477393e-05  2.3633862452967528e-05  2.3669319697948466e-05  2.3693580747463209e-05  2.3705144460310672e-05  2.3703081928866879e-05  2.3687077873200281e-05  2.3657456358325587e-05  2.3615193956694350e-05  2.3561916463311466e-05  2.3499866949167596e-05  2.3431824397084320e-05  2.3360947264193930e-05  2.3290523213705301e-05  2.3223633642198842e-05  2.3162785950728229e-05  2.3109602859037591e-05  2.3064657521875476e-05  2.3027501430966513e-05  2.2996868003856662e-05  2.2970974694660891e-05  2.2947819438486418e-05  2.2925387528045124e-05  2.2901730414565426e-05  2.2874922061307852e-05  2.2842874098061824e-05  2.2803102861164575e-05  2.2751813015049356e-05  2.2684320377759148e-05  2.2585717096867998e-05  2.2451228556695826e-05  2.2129539594874771e-05  2.1872439883546478e-05  2.2104321659089321e-05  2.2447641985479355e-05  2.2830129398235067e-05  2.3228947593579357e-05  2.3620638194239972e-05  2.3983940547257276e-05  2.4303007339062935e-05  2.4570027498560917e-05  2.4784621300216419e-05  2.4951554143463902e-05  2.5078172098294982e-05  2.5172405891534950e-05  2.5241573261137315e-05  2.5291845526850092e-05  2.5328139095012467e-05  2.5354225659546911e-05  2.5372925823912249e-05  2.5386312504606974e-05  2.5395891092977852e-05  2.5402745997275423e-05  2.5407654077299703e-05  2.5411169763024569e-05  2.5413687631565778e-05  2.5415487769208487e-05  2.5416768314871460e-05  2.5417668601867285e-05  2.5418285455113827e-05  2.5418684504666876e-05  2.5418907833765332e-05  2.5418978862667866e-05  2.5377952699010127e-05  2.5360497642876002e-05  2.5305389840251893e-05  2.5213795596987888e-05  2.5087798095333055e-05  2.4930739913853833e-05  2.4747568829713379e-05  2.4544992251975850e-05  2.4331155003141759e-05  2.4114538265970746e-05  2.3901329914286679e-05  2.3694279960944395e-05  2.3500635558001239e-05  2.3329587224912007e-05  2.3186735178411849e-05  2.3076173752249185e-05  2.2999534370831480e-05  2.2954318445658156e-05  2.2934688042494945e-05  2.2933636571918074e-05  2.2944909027566351e-05  2.2963696882787947e-05  2.2986494577538859e-05  2.3010830168379567e-05  2.3035137373103187e-05  2.3058712967493812e-05  2.3081649881981195e-05  2.3104703917481024e-05  2.3129104826482352e-05  2.3156330862345649e-05  2.3187857213706854e-05  2.3224890634720793e-05  2.3268119283177799e-05  2.3317522363336570e-05  2.3372281016798857e-05  2.3430808400779996e-05  2.3490887225454041e-05  2.3549881276575662e-05  2.3604978308238239e-05  2.3653424243635734e-05  2.3692720375836053e-05  2.3720771394029663e-05  2.3735986298992164e-05  2.3737342476554077e-05  2.3724425021598416e-05  2.3697450758457043e-05  2.3657281252716755e-05  2.3605422443581210e-05  2.3544000574969065e-05  2.3475695457939841e-05  2.3403605691216454e-05  2.3331023603486692e-05  2.3261119998881521e-05  2.3196580826536084e-05  2.3139278364693800e-05  2.3090066880072688e-05  2.3048758134907771e-05  2.3014274741217329e-05  2.2984922304621326e-05  2.2958685777277456e-05  2.2933459375745643e-05  2.2907155566930929e-05  2.2877682292200221e-05  2.2842772706762432e-05  2.2799717922682708e-05  2.2744542374454394e-05  2.2671935695136045e-05  2.2567620424745358e-05  2.2422182972417365e-05  2.2102235853115015e-05  2.1874912639475796e-05  2.2102772737158826e-05  2.2444305059275730e-05  2.2826029995379103e-05  2.3224406894814429e-05  2.3615955315222934e-05  2.3979408319089805e-05  2.4298855802016489e-05  2.4566392661030869e-05  2.4781548785969459e-05  2.4949023141384050e-05  2.5076123699703646e-05  2.5170766120283635e-05  2.5240267917600928e-05  2.5290807911233628e-05  2.5327312904717358e-05  2.5353565149533145e-05  2.5372394679496747e-05  2.5385882280195024e-05  2.5395539653135397e-05  2.5402456146533426e-05  2.5407412431865585e-05  2.5410965854887997e-05  2.5413513211200840e-05  2.5415336267734052e-05  2.5416634429375681e-05  2.5417547973143963e-05  2.5418174412819209e-05  2.5418579860141500e-05  2.5418806705788971e-05  2.5418878526745525e-05  2.5002372569576236e-05  2.4986492024504701e-05  2.4936395417722420e-05  2.4853469176479447e-05  2.4740229733847638e-05  2.4600450646980553e-05  2.4439185373098966e-05  2.4262438690553043e-05  2.4076146156558405e-05  2.3884381040443800e-05  2.3690800154694610e-05  2.3504655539712625e-05  2.3336210702438141e-05  2.3191919347780059e-05  2.3076803192247677e-05  2.2994028721165485e-05  2.2942717416542787e-05  2.2917991403025576e-05  2.2913013385100129e-05  2.2921302751832125e-05  2.2937866298205403e-05  2.2959150544336649e