<?xml version="1.0"?>
<VTKFile type="UnstructuredGrid"  version="0.1"  >
<UnstructuredGrid>
<Piece  NumberOfPoints="10201" NumberOfCells="20000">
<Points>
<DataArray  type="Float64"  NumberOfComponents="3"  format="ascii">0 0 0  0.25 0 0  0.5 0 0  0.75 0 0  1 0 0  1.25 0 0  1.5 0 0  1.75 0 0  2 0 0  2.25 0 0  2.5 0 0  2.75 0 0  3 0 0  3.25 0 0  3.5 0 0  3.75 0 0  4 0 0  4.25 0 0  4.5 0 0  4.75 0 0  5 0 0  5.25 0 0  5.5 0 0  5.75 0 0  6 0 0  6.25 0 0  6.5 0 0  6.75 0 0  7 0 0  7.25 0 0  7.5 0 0  7.75 0 0  8 0 0  8.25 0 0  8.5 0 0  8.75 0 0  9 0 0  9.25 0 0  9.5 0 0  9.75 0 0  10 0 0  10.25 0 0  10.5 0 0  10.75 0 0  11 0 0  11.25 0 0  11.5 0 0  11.75 0 0  12 0 0  12.25 0 0  12.5 0 0  12.75 0 0  13 0 0  13.25 0 0  13.5 0 0  13.75 0 0  14 0 0  14.25 0 0  14.5 0 0  14.75 0 0  15 0 0  15.25 0 0  15.5 0 0  15.75 0 0  16 0 0  16.25 0 0  16.5 0 0  16.75 0 0  17 0 0  17.25 0 0  17.5 0 0  17.75 0 0  18 0 0  18.25 0 0  18.5 0 0  18.75 0 0  19 0 0  19.25 0 0  19.5 0 0  19.75 0 0  20 0 0  20.25 0 0  20.5 0 0  20.75 0 0  21 0 0  21.25 0 0  21.5 0 0  21.75 0 0  22 0 0  22.25 0 0  22.5 0 0  22.75 0 0  23 0 0  23.25 0 0  23.5 0 0  23.75 0 0  24 0 0  24.25 0 0  24.5 0 0  24.75 0 0  25 0 0  0 0.25 0  0.25 0.25 0  0.5 0.25 0  0.75 0.25 0  1 0.25 0  1.25 0.25 0  1.5 0.25 0  1.75 0.25 0  2 0.25 0  2.25 0.25 0  2.5 0.25 0  2.75 0.25 0  3 0.25 0  3.25 0.25 0  3.5 0.25 0  3.75 0.25 0  4 0.25 0  4.25 0.25 0  4.5 0.25 0  4.75 0.25 0  5 0.25 0  5.25 0.25 0  5.5 0.25 0  5.75 0.25 0  6 0.25 0  6.25 0.25 0  6.5 0.25 0  6.75 0.25 0  7 0.25 0  7.25 0.25 0  7.5 0.25 0  7.75 0.25 0  8 0.25 0  8.25 0.25 0  8.5 0.25 0  8.75 0.25 0  9 0.25 0  9.25 0.25 0  9.5 0.25 0  9.75 0.25 0  10 0.25 0  10.25 0.25 0  10.5 0.25 0  10.75 0.25 0  11 0.25 0  11.25 0.25 0  11.5 0.25 0  11.75 0.25 0  12 0.25 0  12.25 0.25 0  12.5 0.25 0  12.75 0.25 0  13 0.25 0  13.25 0.25 0  13.5 0.25 0  13.75 0.25 0  14 0.25 0  14.25 0.25 0  14.5 0.25 0  14.75 0.25 0  15 0.25 0  15.25 0.25 0  15.5 0.25 0  15.75 0.25 0  16 0.25 0  16.25 0.25 0  16.5 0.25 0  16.75 0.25 0  17 0.25 0  17.25 0.25 0  17.5 0.25 0  17.75 0.25 0  18 0.25 0  18.25 0.25 0  18.5 0.25 0  18.75 0.25 0  19 0.25 0  19.25 0.25 0  19.5 0.25 0  19.75 0.25 0  20 0.25 0  20.25 0.25 0  20.5 0.25 0  20.75 0.25 0  21 0.25 0  21.25 0.25 0  21.5 0.25 0  21.75 0.25 0  22 0.25 0  22.25 0.25 0  22.5 0.25 0  22.75 0.25 0  23 0.25 0  23.25 0.25 0  23.5 0.25 0  23.75 0.25 0  24 0.25 0  24.25 0.25 0  24.5 0.25 0  24.75 0.25 0  25 0.25 0  0 0.5 0  0.25 0.5 0  0.5 0.5 0  0.75 0.5 0  1 0.5 0  1.25 0.5 0  1.5 0.5 0  1.75 0.5 0  2 0.5 0  2.25 0.5 0  2.5 0.5 0  2.75 0.5 0  3 0.5 0  3.25 0.5 0  3.5 0.5 0  3.75 0.5 0  4 0.5 0  4.25 0.5 0  4.5 0.5 0  4.75 0.5 0  5 0.5 0  5.25 0.5 0  5.5 0.5 0  5.75 0.5 0  6 0.5 0  6.25 0.5 0  6.5 0.5 0  6.75 0.5 0  7 0.5 0  7.25 0.5 0  7.5 0.5 0  7.75 0.5 0  8 0.5 0  8.25 0.5 0  8.5 0.5 0  8.75 0.5 0  9 0.5 0  9.25 0.5 0  9.5 0.5 0  9.75 0.5 0  10 0.5 0  10.25 0.5 0  10.5 0.5 0  10.75 0.5 0  11 0.5 0  11.25 0.5 0  11.5 0.5 0  11.75 0.5 0  12 0.5 0  12.25 0.5 0  12.5 0.5 0  12.75 0.5 0  13 0.5 0  13.25 0.5 0  13.5 0.5 0  13.75 0.5 0  14 0.5 0  14.25 0.5 0  14.5 0.5 0  14.75 0.5 0  15 0.5 0  15.25 0.5 0  15.5 0.5 0  15.75 0.5 0  16 0.5 0  16.25 0.5 0  16.5 0.5 0  16.75 0.5 0  17 0.5 0  17.25 0.5 0  17.5 0.5 0  17.75 0.5 0  18 0.5 0  18.25 0.5 0  18.5 0.5 0  18.75 0.5 0  19 0.5 0  19.25 0.5 0  19.5 0.5 0  19.75 0.5 0  20 0.5 0  20.25 0.5 0  20.5 0.5 0  20.75 0.5 0  21 0.5 0  21.25 0.5 0  21.5 0.5 0  21.75 0.5 0  22 0.5 0  22.25 0.5 0  22.5 0.5 0  22.75 0.5 0  23 0.5 0  23.25 0.5 0  23.5 0.5 0  23.75 0.5 0  24 0.5 0  24.25 0.5 0  24.5 0.5 0  24.75 0.5 0  25 0.5 0  0 0.75 0  0.25 0.75 0  0.5 0.75 0  0.75 0.75 0  1 0.75 0  1.25 0.75 0  1.5 0.75 0  1.75 0.75 0  2 0.75 0  2.25 0.75 0  2.5 0.75 0  2.75 0.75 0  3 0.75 0  3.25 0.75 0  3.5 0.75 0  3.75 0.75 0  4 0.75 0  4.25 0.75 0  4.5 0.75 0  4.75 0.75 0  5 0.75 0  5.25 0.75 0  5.5 0.75 0  5.75 0.75 0  6 0.75 0  6.25 0.75 0  6.5 0.75 0  6.75 0.75 0  7 0.75 0  7.25 0.75 0  7.5 0.75 0  7.75 0.75 0  8 0.75 0  8.25 0.75 0  8.5 0.75 0  8.75 0.75 0  9 0.75 0  9.25 0.75 0  9.5 0.75 0  9.75 0.75 0  10 0.75 0  10.25 0.75 0  10.5 0.75 0  10.75 0.75 0  11 0.75 0  11.25 0.75 0  11.5 0.75 0  11.75 0.75 0  12 0.75 0  12.25 0.75 0  12.5 0.75 0  12.75 0.75 0  13 0.75 0  13.25 0.75 0  13.5 0.75 0  13.75 0.75 0  14 0.75 0  14.25 0.75 0  14.5 0.75 0  14.75 0.75 0  15 0.75 0  15.25 0.75 0  15.5 0.75 0  15.75 0.75 0  16 0.75 0  16.25 0.75 0  16.5 0.75 0  16.75 0.75 0  17 0.75 0  17.25 0.75 0  17.5 0.75 0  17.75 0.75 0  18 0.75 0  18.25 0.75 0  18.5 0.75 0  18.75 0.75 0  19 0.75 0  19.25 0.75 0  19.5 0.75 0  19.75 0.75 0  20 0.75 0  20.25 0.75 0  20.5 0.75 0  20.75 0.75 0  21 0.75 0  21.25 0.75 0  21.5 0.75 0  21.75 0.75 0  22 0.75 0  22.25 0.75 0  22.5 0.75 0  22.75 0.75 0  23 0.75 0  23.25 0.75 0  23.5 0.75 0  23.75 0.75 0  24 0.75 0  24.25 0.75 0  24.5 0.75 0  24.75 0.75 0  25 0.75 0  0 1 0  0.25 1 0  0.5 1 0  0.75 1 0  1 1 0  1.25 1 0  1.5 1 0  1.75 1 0  2 1 0  2.25 1 0  2.5 1 0  2.75 1 0  3 1 0  3.25 1 0  3.5 1 0  3.75 1 0  4 1 0  4.25 1 0  4.5 1 0  4.75 1 0  5 1 0  5.25 1 0  5.5 1 0  5.75 1 0  6 1 0  6.25 1 0  6.5 1 0  6.75 1 0  7 1 0  7.25 1 0  7.5 1 0  7.75 1 0  8 1 0  8.25 1 0  8.5 1 0  8.75 1 0  9 1 0  9.25 1 0  9.5 1 0  9.75 1 0  10 1 0  10.25 1 0  10.5 1 0  10.75 1 0  11 1 0  11.25 1 0  11.5 1 0  11.75 1 0  12 1 0  12.25 1 0  12.5 1 0  12.75 1 0  13 1 0  13.25 1 0  13.5 1 0  13.75 1 0  14 1 0  14.25 1 0  14.5 1 0  14.75 1 0  15 1 0  15.25 1 0  15.5 1 0  15.75 1 0  16 1 0  16.25 1 0  16.5 1 0  16.75 1 0  17 1 0  17.25 1 0  17.5 1 0  17.75 1 0  18 1 0  18.25 1 0  18.5 1 0  18.75 1 0  19 1 0  19.25 1 0  19.5 1 0  19.75 1 0  20 1 0  20.25 1 0  20.5 1 0  20.75 1 0  21 1 0  21.25 1 0  21.5 1 0  21.75 1 0  22 1 0  22.25 1 0  22.5 1 0  22.75 1 0  23 1 0  23.25 1 0  23.5 1 0  23.75 1 0  24 1 0  24.25 1 0  24.5 1 0  24.75 1 0  25 1 0  0 1.25 0  0.25 1.25 0  0.5 1.25 0  0.75 1.25 0  1 1.25 0  1.25 1.25 0  1.5 1.25 0  1.75 1.25 0  2 1.25 0  2.25 1.25 0  2.5 1.25 0  2.75 1.25 0  3 1.25 0  3.25 1.25 0  3.5 1.25 0  3.75 1.25 0  4 1.25 0  4.25 1.25 0  4.5 1.25 0  4.75 1.25 0  5 1.25 0  5.25 1.25 0  5.5 1.25 0  5.75 1.25 0  6 1.25 0  6.25 1.25 0  6.5 1.25 0  6.75 1.25 0  7 1.25 0  7.25 1.25 0  7.5 1.25 0  7.75 1.25 0  8 1.25 0  8.25 1.25 0  8.5 1.25 0  8.75 1.25 0  9 1.25 0  9.25 1.25 0  9.5 1.25 0  9.75 1.25 0  10 1.25 0  10.25 1.25 0  10.5 1.25 0  10.75 1.25 0  11 1.25 0  11.25 1.25 0  11.5 1.25 0  11.75 1.25 0  12 1.25 0  12.25 1.25 0  12.5 1.25 0  12.75 1.25 0  13 1.25 0  13.25 1.25 0  13.5 1.25 0  13.75 1.25 0  14 1.25 0  14.25 1.25 0  14.5 1.25 0  14.75 1.25 0  15 1.25 0  15.25 1.25 0  15.5 1.25 0  15.75 1.25 0  16 1.25 0  16.25 1.25 0  16.5 1.25 0  16.75 1.25 0  17 1.25 0  17.25 1.25 0  17.5 1.25 0  17.75 1.25 0  18 1.25 0  18.25 1.25 0  18.5 1.25 0  18.75 1.25 0  19 1.25 0  19.25 1.25 0  19.5 1.25 0  19.75 1.25 0  20 1.25 0  20.25 1.25 0  20.5 1.25 0  20.75 1.25 0  21 1.25 0  21.25 1.25 0  21.5 1.25 0  21.75 1.25 0  22 1.25 0  22.25 1.25 0  22.5 1.25 0  22.75 1.25 0  23 1.25 0  23.25 1.25 0  23.5 1.25 0  23.75 1.25 0  24 1.25 0  24.25 1.25 0  24.5 1.25 0  24.75 1.25 0  25 1.25 0  0 1.5 0  0.25 1.5 0  0.5 1.5 0  0.75 1.5 0  1 1.5 0  1.25 1.5 0  1.5 1.5 0  1.75 1.5 0  2 1.5 0  2.25 1.5 0  2.5 1.5 0  2.75 1.5 0  3 1.5 0  3.25 1.5 0  3.5 1.5 0  3.75 1.5 0  4 1.5 0  4.25 1.5 0  4.5 1.5 0  4.75 1.5 0  5 1.5 0  5.25 1.5 0  5.5 1.5 0  5.75 1.5 0  6 1.5 0  6.25 1.5 0  6.5 1.5 0  6.75 1.5 0  7 1.5 0  7.25 1.5 0  7.5 1.5 0  7.75 1.5 0  8 1.5 0  8.25 1.5 0  8.5 1.5 0  8.75 1.5 0  9 1.5 0  9.25 1.5 0  9.5 1.5 0  9.75 1.5 0  10 1.5 0  10.25 1.5 0  10.5 1.5 0  10.75 1.5 0  11 1.5 0  11.25 1.5 0  11.5 1.5 0  11.75 1.5 0  12 1.5 0  12.25 1.5 0  12.5 1.5 0  12.75 1.5 0  13 1.5 0  13.25 1.5 0  13.5 1.5 0  13.75 1.5 0  14 1.5 0  14.25 1.5 0  14.5 1.5 0  14.75 1.5 0  15 1.5 0  15.25 1.5 0  15.5 1.5 0  15.75 1.5 0  16 1.5 0  16.25 1.5 0  16.5 1.5 0  16.75 1.5 0  17 1.5 0  17.25 1.5 0  17.5 1.5 0  17.75 1.5 0  18 1.5 0  18.25 1.5 0  18.5 1.5 0  18.75 1.5 0  19 1.5 0  19.25 1.5 0  19.5 1.5 0  19.75 1.5 0  20 1.5 0  20.25 1.5 0  20.5 1.5 0  20.75 1.5 0  21 1.5 0  21.25 1.5 0  21.5 1.5 0  21.75 1.5 0  22 1.5 0  22.25 1.5 0  22.5 1.5 0  22.75 1.5 0  23 1.5 0  23.25 1.5 0  23.5 1.5 0  23.75 1.5 0  24 1.5 0  24.25 1.5 0  24.5 1.5 0  24.75 1.5 0  25 1.5 0  0 1.75 0  0.25 1.75 0  0.5 1.75 0  0.75 1.75 0  1 1.75 0  1.25 1.75 0  1.5 1.75 0  1.75 1.75 0  2 1.75 0  2.25 1.75 0  2.5 1.75 0  2.75 1.75 0  3 1.75 0  3.25 1.75 0  3.5 1.75 0  3.75 1.75 0  4 1.75 0  4.25 1.75 0  4.5 1.75 0  4.75 1.75 0  5 1.75 0  5.25 1.75 0  5.5 1.75 0  5.75 1.75 0  6 1.75 0  6.25 1.75 0  6.5 1.75 0  6.75 1.75 0  7 1.75 0  7.25 1.75 0  7.5 1.75 0  7.75 1.75 0  8 1.75 0  8.25 1.75 0  8.5 1.75 0  8.75 1.75 0  9 1.75 0  9.25 1.75 0  9.5 1.75 0  9.75 1.75 0  10 1.75 0  10.25 1.75 0  10.5 1.75 0  10.75 1.75 0  11 1.75 0  11.25 1.75 0  11.5 1.75 0  11.75 1.75 0  12 1.75 0  12.25 1.75 0  12.5 1.75 0  12.75 1.75 0  13 1.75 0  13.25 1.75 0  13.5 1.75 0  13.75 1.75 0  14 1.75 0  14.25 1.75 0  14.5 1.75 0  14.75 1.75 0  15 1.75 0  15.25 1.75 0  15.5 1.75 0  15.75 1.75 0  16 1.75 0  16.25 1.75 0  16.5 1.75 0  16.75 1.75 0  17 1.75 0  17.25 1.75 0  17.5 1.75 0  17.75 1.75 0  18 1.75 0  18.25 1.75 0  18.5 1.75 0  18.75 1.75 0  19 1.75 0  19.25 1.75 0  19.5 1.75 0  19.75 1.75 0  20 1.75 0  20.25 1.75 0  20.5 1.75 0  20.75 1.75 0  21 1.75 0  21.25 1.75 0  21.5 1.75 0  21.75 1.75 0  22 1.75 0  22.25 1.75 0  22.5 1.75 0  22.75 1.75 0  23 1.75 0  23.25 1.75 0  23.5 1.75 0  23.75 1.75 0  24 1.75 0  24.25 1.75 0  24.5 1.75 0  24.75 1.75 0  25 1.75 0  0 2 0  0.25 2 0  0.5 2 0  0.75 2 0  1 2 0  1.25 2 0  1.5 2 0  1.75 2 0  2 2 0  2.25 2 0  2.5 2 0  2.75 2 0  3 2 0  3.25 2 0  3.5 2 0  3.75 2 0  4 2 0  4.25 2 0  4.5 2 0  4.75 2 0  5 2 0  5.25 2 0  5.5 2 0  5.75 2 0  6 2 0  6.25 2 0  6.5 2 0  6.75 2 0  7 2 0  7.25 2 0  7.5 2 0  7.75 2 0  8 2 0  8.25 2 0  8.5 2 0  8.75 2 0  9 2 0  9.25 2 0  9.5 2 0  9.75 2 0  10 2 0  10.25 2 0  10.5 2 0  10.75 2 0  11 2 0  11.25 2 0 
[...]
<PointData  Scalars="f_26"> 
<DataArray  type="Float64"  Name="f_26"  format="ascii">2.6264770827958183e-05  2.6251739529216822e-05  2.6223136301823672e-05  2.6175950877334268e-05  2.6107442597321388e-05  2.6014441324238169e-05  2.5893399958169649e-05  2.5740794384810032e-05  2.5553814840957387e-05  2.5331304281022361e-05  2.5074787856856351e-05  2.4789282475994468e-05  2.4483466511358033e-05  2.4168819356229549e-05  2.3858999621704237e-05  2.3573133975854871e-05  2.3345718707068906e-05  2.3200221529240286e-05  2.3109183991783640e-05  2.3052810385081410e-05  2.3023385202332125e-05  2.3014587394847298e-05  2.3020460733331291e-05  2.3035712037254393e-05  2.3056032385420837e-05  2.3078384066925979e-05  2.3101108818689355e-05  2.3123791958945277e-05  2.3146946307744474e-05  2.3171627615811605e-05  2.3199059542625173e-05  2.3230300404881085e-05  2.3265967443905285e-05  2.3306041426138819e-05  2.3349778681317972e-05  2.3395742964790055e-05  2.3441942146572721e-05  2.3486032479831001e-05  2.3525546843644439e-05  2.3558110976082474e-05  2.3581625749188895e-05  2.3594407548926970e-05  2.3595289106542966e-05  2.3583688245214144e-05  2.3559652211696684e-05  2.3523881718591200e-05  2.3477732820087082e-05  2.3423187472304505e-05  2.3362776603280694e-05  2.3299435409715493e-05  2.3236274156167175e-05  2.3176265650299331e-05  2.3121886555429459e-05  2.3074793219291056e-05  2.3035633417283199e-05  2.3004063127625613e-05  2.2978957219245266e-05  2.2958723584883576e-05  2.2941604843147409e-05  2.2925886281796611e-05  2.2909987180252823e-05  2.2892445063580713e-05  2.2871835204833979e-05  2.2846563502318657e-05  2.2814756962613310e-05  2.2773234842138036e-05  2.2718622018720431e-05  2.2637748656516226e-05  2.2526950701847231e-05  2.2280467236940039e-05  2.1936197542218387e-05  2.2063775522059218e-05  2.2369370034956397e-05  2.2719824227247045e-05  2.3088177749952439e-05  2.3454225542961592e-05  2.3799460134031456e-05  2.4109280611361217e-05  2.4375217372477426e-05  2.4594998239238996e-05  2.4771110103227947e-05  2.4908858234032794e-05  2.5014656338062548e-05  2.5094855625787026e-05  2.5155107855746492e-05  2.5200120547786020e-05  2.5233647655279681e-05  2.5258595757332299e-05  2.5277170459257866e-05  2.5291022642770070e-05  2.5301376636865085e-05  2.5309134913469598e-05  2.5314960036004285e-05  2.5319337052138511e-05  2.5322620105108896e-05  2.5325066767868245e-05  2.5326863018068722e-05  2.5328141110829187e-05  2.5328991903390850e-05  2.5329472139872945e-05  2.5329604236568713e-05  2.6243404055399073e-05  2.6233218291810396e-05  2.6204913673420351e-05  2.6157284486949776e-05  2.6088017846715003e-05  2.5994094797629682e-05  2.5872079955510863e-05  2.5718576342733501e-05  2.5530923719925055e-05  2.5308120995769358e-05  2.5051822741486550e-05  2.4767105428141201e-05  2.4462589207975657e-05  2.4149600605194504e-05  2.3841721842492966e-05  2.3557619459075853e-05  2.3330971273860454e-05  2.3187827637669909e-05  2.3099522843402681e-05  2.3044976528820580e-05  2.3017486186831141e-05  2.3010459132126806e-05  2.3017772767938337e-05  2.3034068707655298e-05  2.3055067226878790e-05  2.3077814015889352e-05  2.3100748610901895e-05  2.3123543213836833e-05  2.3146774835191415e-05  2.3171539353169269e-05  2.3199081177437245e-05  2.3230466810194547e-05  2.3266315373718016e-05  2.3306607441696888e-05  2.3350598837482086e-05  2.3396852291200144e-05  2.3443373037225224e-05  2.3487812127059325e-05  2.3527694385490392e-05  2.3560635040232857e-05  2.3584522773686109e-05  2.3597660875063375e-05  2.3598868557463148e-05  2.3587549826033986e-05  2.3563737711145014e-05  2.3528118319382767e-05  2.3482033257415451e-05  2.3427451688708688e-05  2.3366896042718715e-05  2.3303300850668702e-05  2.3239787111732460e-05  2.3179351781429296e-05  2.3124507548009010e-05  2.3076952314513831e-05  2.3037370967329270e-05  2.3005442676749875e-05  2.2980047374767924e-05  2.2959582581435528e-05  2.2942271879812919e-05  2.2926379658872212e-05  2.2910305801054701e-05  2.2892573073768023e-05  2.2871738563606732e-05  2.2846211170038373e-05  2.2814047424264160e-05  2.2772263377714964e-05  2.2716722690144884e-05  2.2636895718931587e-05  2.2521452603755259e-05  2.2286601080067403e-05  2.1953771940672592e-05  2.2066987867359649e-05  2.2370656204464130e-05  2.2720709714611959e-05  2.3088751400692982e-05  2.3454643989441237e-05  2.3799962787400790e-05  2.4109955171448259e-05  2.4376035979760975e-05  2.4595878597981465e-05  2.4771965343788641e-05  2.4909625226861201e-05  2.5015302928391325e-05  2.5095375256687573e-05  2.5155510145100892e-05  2.5200422831055345e-05  2.5233869201682398e-05  2.5258754544001158e-05  2.5277281767933186e-05  2.5291098740258542e-05  2.5301427000803914e-05  2.5309166672727806e-05  2.5314978448322512e-05  2.5319345937664134e-05  2.5322622208772409e-05  2.5325064053439895e-05  2.5326856920301280e-05  2.5328132824409720e-05  2.5328982999960523e-05  2.5329466794160923e-05  2.5329619197165873e-05  2.6189119811750876e-05  2.6179213950814545e-05  2.6150291428826792e-05  2.6101190674879558e-05  2.6029790164579300e-05  2.5933272199945459e-05  2.5808447526462924e-05  2.5652242086083196e-05  2.5462400895588503e-05  2.5238379712248394e-05  2.4982268775202262e-05  2.4699450882230059e-05  2.4398587605334730e-05  2.4090794192153049e-05  2.3789599311397176e-05  2.3514194145469390e-05  2.3299201042512497e-05  2.3165757268909230e-05  2.3082552698495512e-05  2.3032068946458808e-05  2.3008178726276394e-05  2.3003992649567131e-05  2.3013404820059650e-05  2.3031127010595123e-05  2.3053024592561366e-05  2.3076309224295476e-05  2.3099571583540949e-05  2.3122601919367952e-05  2.3146060183203075e-05  2.3171096930900490e-05  2.3198991418970544e-05  2.3230831530842876e-05  2.3267247989600510e-05  2.3308224956263776e-05  2.3353014575854129e-05  2.3400169002089886e-05  2.3447676441865877e-05  2.3493165308056499e-05  2.3534133434793487e-05  2.3568166093066206e-05  2.3593120160490854e-05  2.3607265890532590e-05  2.3609388380916559e-05  2.3598856385136044e-05  2.3575666676901642e-05  2.3540468896441221e-05  2.3494569936812248e-05  2.3439909541463376e-05  2.3378991215943897e-05  2.3314747388372447e-05  2.3250319900376455e-05  2.3188753421004274e-05  2.3132634513255497e-05  2.3083753382080847e-05  2.3042890176751438e-05  2.3009802703510831e-05  2.2983417178620391e-05  2.2962140304697295e-05  2.2944174480001660e-05  2.2927745101092014e-05  2.2911207230690976e-05  2.2893040242686559e-05  2.2871763700599435e-05  2.2845747540935869e-05  2.2813031434335457e-05  2.2770525297468969e-05  2.2714274148234797e-05  2.2632913897677173e-05  2.2516926510735286e-05  2.2277601192398798e-05  2.1955411952457534e-05  2.2071722060545364e-05  2.2375295948074835e-05  2.2725180044286334e-05  2.3092923900129824e-05  2.3458422563599645e-05  2.3803314714038063e-05  2.4112868540972764e-05  2.4378508607913573e-05  2.4597921253660351e-05  2.4773605064811187e-05  2.4910904050841835e-05  2.5016272629540436e-05  2.5096090746371895e-05  2.5156023854442352e-05  2.5200781119555745e-05  2.5234110769140197e-05  2.5258910312771483e-05  2.5277375624000147e-05  2.5291148648804599e-05  2.5301446185209009e-05  2.5309164691128673e-05  2.5314962100217710e-05  2.5319319990617790e-05  2.5322589965103279e-05  2.5325027791681763e-05  2.5326818257724555e-05  2.5328093066542065e-05  2.5328943573099739e-05  2.5329429782545033e-05  2.5329586811421440e-05  2.6097449630487537e-05  2.6087133431025109e-05  2.6056801789366162e-05  2.6005251400779683e-05  2.5930505489994000e-05  2.5830008266194426e-05  2.5700954002052352e-05  2.5540789636514615e-05  2.5347910103410074e-05  2.5122492408600156e-05  2.4867300248704904e-05  2.4588164166746626e-05  2.4293754591830511e-05  2.3994973329799226e-05  2.3705446529889830e-05  2.3445940321915808e-05  2.3252038823836544e-05  2.3133592328843055e-05  2.3058432801741784e-05  2.3014692488126527e-05  2.2996183128715678e-05  2.2995980051172093e-05  2.3008112756817417e-05  2.3027520910324832e-05  2.3050371650364314e-05  2.3074163703133510e-05  2.3097718792430374e-05  2.3120988460841812e-05  2.3144735108243700e-05  2.3170172293185232e-05  2.3198619038175559e-05  2.3231188683120111e-05  2.3268526125584378e-05  2.3310618666811535e-05  2.3356710353911267e-05  2.3405334300036604e-05  2.3454449719566182e-05  2.3501647769100784e-05  2.3544382944252101e-05  2.3580193265690633e-05  2.3606886041974244e-05  2.3622680373491652e-05  2.3626308624111094e-05  2.3617084936168864e-05  2.3594949594151197e-05  2.3560494854187478e-05  2.3514972039976660e-05  2.3460272245423768e-05  2.3398865013288207e-05  2.3333673293539386e-05  2.3267863872034260e-05  2.3204547831892674e-05  2.3146420114788869e-05  2.3095411576849816e-05  2.3052453627695275e-05  2.3017436170473908e-05  2.2989371593519335e-05  2.2966695161975611e-05  2.2947586905509370e-05  2.2930216827586043e-05  2.2912870059211957e-05  2.2893954487879054e-05  2.2871920056718985e-05  2.2845071052508284e-05  2.2811365150744377e-05  2.2767628139558211e-05  2.2709732779010162e-05  2.2625981883613439e-05  2.2506871845050948e-05  2.2259537033500641e-05  2.1953477451323877e-05  2.2078826519306004e-05  2.2383178695965193e-05  2.2733040187497157e-05  2.3100406448355240e-05  2.3465237863483782e-05  2.3809262615406216e-05  2.4117857817757053e-05  2.4382546149047456e-05  2.4601084705449513e-05  2.4776012258458210e-05  2.4912686944576036e-05  2.5017559168192961e-05  2.5096994548737820e-05  2.5156639938438345e-05  2.5201185545363390e-05  2.5234362426720409e-05  2.5259053615698896e-05  2.5277443357327070e-05  2.5291164576632642e-05  2.5301427254655826e-05  2.5309122802309057e-05  2.5314905478879544e-05  2.5319254227318416e-05  2.5322518790608481e-05  2.5324953654229340e-05  2.5326742760038907e-05  2.5328017308187160e-05  2.5328868408511810e-05  2.5329355878608393e-05  2.5329514034311272e-05  2.5963807747005857e-05  2.5952881854827712e-05  2.5920646857374738e-05  2.5865958889373872e-05  2.5787055626061370e-05  2.5681752488523007e-05  2.5547785610732793e-05  2.5383320437588218e-05  2.5187615943355640e-05  2.4961764524307645e-05  2.4709325618192725e-05  2.4436549459610356e-05  2.4152022867869116e-05  2.3866566666958313e-05  2.3594311169072986e-05  2.3359094488561951e-05  2.3194216253794889e-05  2.3093104168002472e-05  2.3028525192862751e-05  2.2993850718749652e-05  2.2982246303932427e-05  2.2986946107261975e-05  2.3002224976120552e-05  2.3023435044009023e-05  2.3047189889073136e-05  2.3071380453897214e-05  2.3095126747809370e-05  2.3118578762400968e-05  2.3142619236470050e-05  2.3168532473382737e-05  2.3197680665993084e-05  2.3231204142607199e-05  2.3269761963959071e-05  2.3313342560732698e-05  2.3361177447992114e-05  2.3411773672746934e-05  2.3463051923416263e-05  2.3512554410287716e-05  2.3557679033029791e-05  2.3595902391749320e-05  2.3624967629619378e-05  2.3643027846771883e-05  2.3648747439677792e-05  2.3641369975188025e-05  2.3620762146739939e-05  2.3587440295510747e-05  2.3542580275280001e-05  2.3488003997359138e-05  2.3426127681668070e-05  2.3359849754683896e-05  2.3292355461960949e-05  2.3226828682334298e-05  2.3166094756501136e-05  2.3112262726849799e-05  2.3066464430254162e-05  2.3028774618319419e-05  2.2998337337012313e-05  2.2973645168579942e-05  2.2952864098508787e-05  2.2934099329947595e-05  2.2915545018473302e-05  2.2895510425900887e-05  2.2872346177182661e-05  2.2844257956639214e-05  2.2809084369355941e-05  2.2763517947176937e-05  2.2703175040534353e-05  2.2615993308244935e-05  2.2491906403849978e-05  2.2235223957072840e-05  2.1951327104058148e-05  2.2088427882775421e-05  2.2393992502411359e-05  2.2743896422393023e-05  2.3110765987722674e-05  2.3474660491775255e-05  2.3817430139807445e-05  2.4124623071811042e-05  2.4387924634761645e-05  2.4605207794913884e-05  2.4779072054049286e-05  2.4914890823203254e-05  2.5019100620601127e-05  2.5098038914428099e-05  2.5157320479670630e-05  2.5201605343775087e-05  2.5234598843715131e-05  2.5259163374109488e-05  2.5277467267442369e-05  2.5291131520190814e-05  2.5301357355556541e-05  2.5309029857896542e-05  2.5314798777249255e-05  2.5319139881537295e-05  2.5322400706422364e-05  2.5324834227049805e-05  2.5326623374925082e-05  2.5327898692271639e-05  2.5328750852085387e-05  2.5329239292179341e-05  2.5329397787499515e-05  2.5783624716559137e-05  2.5772107746566311e-05  2.5737814294528404e-05  2.5679769754716113e-05  2.5596540879275132e-05  2.5486454128409722e-05  2.5347952754787225e-05  2.5180093759707700e-05  2.4983148752842802e-05  2.4759205154260087e-05  2.4512562976988221e-05  2.4249704418899782e-05  2.3979206284429119e-05  2.3712037013828359e-05  2.3463938950670699e-05  2.3262763210703805e-05  2.3130659793718342e-05  2.3046980958348262e-05  2.2995596810810809e-05  2.2971779028560428e-05  2.2968023977011102e-05  2.2977976564720024e-05  2.2996377299023490e-05  2.3019190022172067e-05  2.3043593077044611e-05  2.3067940729076944e-05  2.3091687199315789e-05  2.3115196492043351e-05  2.3139476896960774e-05  2.3165884307266918e-05  2.3195823436716847e-05  2.3230460354124009e-05  2.3270466464616475e-05  2.3315828759227717e-05  2.3365762686341512e-05  2.3418744416980927e-05  2.3472649703520274e-05  2.3524963707677699e-05  2.3573018221772398e-05  2.3614218030305349e-05  2.3646231318378660e-05  2.3667134224007372e-05  2.3675511949616576e-05  2.3670525618433830e-05  2.3651955250973630e-05  2.3620226316056892e-05  2.3576421775553925e-05  2.3522274251170631e-05  2.3460124491999987e-05  2.3392824336384871e-05  2.3323559434124880e-05  2.3255577512287273e-05  2.3191839053150688e-05  2.3134652098021617e-05  2.3085385145874401e-05  2.3044344966437009e-05  2.3010856355643361e-05  2.2983508901283774e-05  2.2960476475371162e-05  2.2939801963573781e-05  2.2919575536106890e-05  2.2897985163766850e-05  2.2873254112409150e-05  2.2843459068315769e-05  2.2806279926776747e-05  2.2758249081244838e-05  2.2694606297233230e-05  2.2603071344414595e-05  2.2472174726734957e-05  2.2206715157995111e-05  2.1950426700334607e-05  2.2100291716114174e-05  2.2407251293024489e-05  2.2757194982091517e-05  2.3123426264544135e-05  2.3486131828105108e-05  2.3827313755533670e-05  2.4132739215848928e-05  2.4394303176843362e-05  2.4610026757219920e-05  2.4782584523827453e-05  2.4917365254978077e-05  2.5020783466754259e-05  2.5099137341530186e-05  2.5157998674904885e-05  2.5201988151819313e-05  2.5234778349288372e-05  2.5259205922116628e-05  2.5277419741769674e-05  2.5291026481130855e-05  2.5301217027054809e-05  2.5308869118155542e-05  2.5314627349869643e-05  2.5318963914186615e-05  2.5322223894082655e-05  2.5324658603146869e-05  2.5326449862134941e-05  2.5327727476546301e-05  2.5328581618191267e-05  2.5329071342260500e-05  2.5329230082722678e-05  2.5553664270068511e-05  2.5541740331795358e-05  2.5505633162286341e-05  2.5444642305067422e-05  2.5357786150754878e-05  2.5244039117648171e-05  2.5102687735125106e-05  2.4933786832689156e-05  2.4738654765877093e-05  2.4520273921713822e-05  2.4283437481821139e-05  2.4034833572640387e-05  2.3783226370395145e-05  2.3540324674529634e-05  2.3325599405895779e-05  2.3166743314412634e-05  2.3064849216252740e-05  2.2999048894351432e-05  2.2963145199963801e-05  2.2950963084747588e-05  2.2955150735799476e-05  2.2970019386430275e-05  2.2991052763789551e-05  2.3014976853499553e-05  2.3039599433156409e-05  2.3063760510351938e-05  2.3087249052821207e-05  2.3110636920836453e-05  2.3135051189900034e-05  2.3161913957065439e-05  2.3192668388371947e-05  2.3228503039741469e-05  2.3270098968008897e-05  2.3317439598169458e-05  2.3369722644722561e-05  2.3425391677966143e-05  2.3482274957885673e-05  2.3537796646817756e-05  2.3589217051567756e-05  2.3633862748126133e-05  2.3669320081161920e-05  2.3693581194839283e-05  2.3705144937807369e-05  2.3703082395910573e-05  2.3687078287702786e-05  2.3657456682101177e-05  2.3615194160138728e-05  2.3561916528546868e-05  2.3499866871483511e-05  2.3431824185009953e-05  2.3360946938571555e-05  2.3290522805704123e-05  2.3223633189890312e-05  2.3162785494307097e-05  2.3109602435733222e-05  2.3064657162061420e-05  2.3027501156650055e-05  2.2996867831505461e-05  2.2970974638290175e-05  2.2947819539507240e-05  2.2925387792862975e-05  2.2901731264435693e-05  2.2874922617147630e-05  2.2842880856272880e-05  2.2803094096338460e-05  2.2751904829348830e-05  2.2684095774836099e-05  2.2587332258942340e-05  2.2448011169883014e-05  2.2176299972030555e-05  2.1951565131331387e-05  2.2113965995569173e-05  2.2422315268524885e-05  2.2772233336361007e-05  2.3137668655670304e-05  2.3498959114741273e-05  2.3838283642441370e-05  2.4141663893348728e-05  2.4401235364012862e-05  2.4615186528679439e-05  2.4786273728306538e-05  2.4919898556598471e-05  2.5022446017185572e-05  2.5100166018246561e-05  2.5158579000057577e-05  2.5202259451913326e-05  2.5234842028438368e-05  2.5259133977130723e-05  2.5277262218635421e-05  2.5290817476204825e-05  2.5300979277171437e-05  2.5308617396289816e-05  2.5314370919559897e-05  2.5318708273486936e-05  2.5321971997899110e-05  2.5324411709430576e-05  2.5326208109394566e-05  2.5327490269304487e-05  2.5328347874072541e-05  2.5328839642372010e-05  2.5328998772660058e-05  2.5273934149802298e-05  2.5261918615747652e-05  2.5224681368549535e-05  2.5161881699454677e-05  2.5073084706983746e-05  2.4958003048800365e-05  2.4816824216726507e-05  2.4650583834127558e-05  2.4461492205100671e-05  2.4253156511162364e-05  2.4030806571773220e-05  2.3801476010470686e-05  2.3574437965018406e-05  2.3363996569737777e-05  2.3193408442190483e-05  2.3076776388712269e-05  2.3000268528453942e-05  2.2954384118113999e-05  2.2934720812252379e-05  2.2933664186245210e-05  2.2944911519908696e-05  2.2963701711638147e-05  2.2986496156460030e-05  2.3010831274294704e-05  2.3035138043095488e-05  2.3058713379146363e-05  2.3081650145978227e-05  2.3104704064355473e-05  2.3129104885875221e-05  2.3156330848948027e-05  2.3187857141930942e-05  2.3224890520459677e-05  2.3268119146200299e-05  2.3317522227287653e-05  2.3372280907946663e-05  2.3430808345886461e-05  2.3490887249140166e-05  2.3549881398431445e-05  2.3604978539953497e-05  2.3653424586496067e-05  2.3692720819010752e-05  2.3720771914170668e-05  2.3735986861638603e-05  2.3737343039530589e-05  2.3724425540020615e-05  2.3697451190375724e-05  2.3657281564192318e-05  2.3605422612255062e-05  2.3544000591839935e-05  2.3475695327656978e-05  2.3403605431356734e-05  2.3331023242884198e-05  2.3261119574612916e-05  2.3196580379439674e-05  2.3139277934325172e-05  2.3090066500612604e-05  2.3048757833319776e-05  2.3014274538929053e-05  2.2984922221927969e-05  2.2958685854627831e-05  2.2933459649406823e-05  2.2907156365825479e-05  2.2877683188837196e-05  2.2842778487079656e-05  2.2799714286245243e-05  2.2744617065362841e-05  2.2671789216523111e-05  2.2568983486068183e-05  2.2420190484871202e-05  2.2146425211735665e-05  2.1955043419311270e-05  2.2128827829989524e-05  2.2438401391794854e-05  2.2788165812345251e-05  2.3152635150450017e-05  2.3512317424107576e-05  2.3849587699265075e-05  2.4150744116326693e-05  2.4408177193002822e-05  2.4620248272552576e-05  2.4789793678784037e-05  2.4922221770842135e-05  2.5023880536090847e-05  2.5100964494972702e-05  2.5158936888764969e-05  2.5202321649101668e-05  2.5234712485048271e-05  2.5258885276165787e-05  2.5276943807351611e-05  2.5290462199262801e-05  2.5300608312312657e-05  2.5308243862333236e-05  2.5314002452456002e-05  2.5318348832500693e-05  2.5321623112614922e-05  2.5324073327868530e-05  2.5325879164962655e-05  2.5327169051190093e-05  2.5328032261953490e-05  2.5328527252042826e-05  2.5328687053816091e-05  2.4949606997895735e-05  2.4937874940755723e-05  2.4900586687108700e-05  2.4837795864310066e-05  2.4749639738917571e-05  2.4636561729868708e-05  2.4499562803575771e-05  2.4340454161351817e-05  2.4162118521701439e-05  2.3968765044359709e-05  2.3766097537143607e-05  2.3561673180565616e-05  2.3366799982104946e-05  2.3199856968474593e-05  2.3077405356132710e-05  2.2994817095690171e-05  2.2942954974496140e-05  2.2917989091321576e-05  2.2913059288553148e-05  2.2921309804633380e-05  2.2937870244864788e-05  2.2959153821294137e