<?xml version="1.0"?>
<VTKFile type="UnstructuredGrid"  version="0.1"  >
<UnstructuredGrid>
<Piece  NumberOfPoints="10201" NumberOfCells="20000">
<Points>
<DataArray  type="Float64"  NumberOfComponents="3"  format="ascii">0 0 0  0.25 0 0  0.5 0 0  0.75 0 0  1 0 0  1.25 0 0  1.5 0 0  1.75 0 0  2 0 0  2.25 0 0  2.5 0 0  2.75 0 0  3 0 0  3.25 0 0  3.5 0 0  3.75 0 0  4 0 0  4.25 0 0  4.5 0 0  4.75 0 0  5 0 0  5.25 0 0  5.5 0 0  5.75 0 0  6 0 0  6.25 0 0  6.5 0 0  6.75 0 0  7 0 0  7.25 0 0  7.5 0 0  7.75 0 0  8 0 0  8.25 0 0  8.5 0 0  8.75 0 0  9 0 0  9.25 0 0  9.5 0 0  9.75 0 0  10 0 0  10.25 0 0  10.5 0 0  10.75 0 0  11 0 0  11.25 0 0  11.5 0 0  11.75 0 0  12 0 0  12.25 0 0  12.5 0 0  12.75 0 0  13 0 0  13.25 0 0  13.5 0 0  13.75 0 0  14 0 0  14.25 0 0  14.5 0 0  14.75 0 0  15 0 0  15.25 0 0  15.5 0 0  15.75 0 0  16 0 0  16.25 0 0  16.5 0 0  16.75 0 0  17 0 0  17.25 0 0  17.5 0 0  17.75 0 0  18 0 0  18.25 0 0  18.5 0 0  18.75 0 0  19 0 0  19.25 0 0  19.5 0 0  19.75 0 0  20 0 0  20.25 0 0  20.5 0 0  20.75 0 0  21 0 0  21.25 0 0  21.5 0 0  21.75 0 0  22 0 0  22.25 0 0  22.5 0 0  22.75 0 0  23 0 0  23.25 0 0  23.5 0 0  23.75 0 0  24 0 0  24.25 0 0  24.5 0 0  24.75 0 0  25 0 0  0 0.25 0  0.25 0.25 0  0.5 0.25 0  0.75 0.25 0  1 0.25 0  1.25 0.25 0  1.5 0.25 0  1.75 0.25 0  2 0.25 0  2.25 0.25 0  2.5 0.25 0  2.75 0.25 0  3 0.25 0  3.25 0.25 0  3.5 0.25 0  3.75 0.25 0  4 0.25 0  4.25 0.25 0  4.5 0.25 0  4.75 0.25 0  5 0.25 0  5.25 0.25 0  5.5 0.25 0  5.75 0.25 0  6 0.25 0  6.25 0.25 0  6.5 0.25 0  6.75 0.25 0  7 0.25 0  7.25 0.25 0  7.5 0.25 0  7.75 0.25 0  8 0.25 0  8.25 0.25 0  8.5 0.25 0  8.75 0.25 0  9 0.25 0  9.25 0.25 0  9.5 0.25 0  9.75 0.25 0  10 0.25 0  10.25 0.25 0  10.5 0.25 0  10.75 0.25 0  11 0.25 0  11.25 0.25 0  11.5 0.25 0  11.75 0.25 0  12 0.25 0  12.25 0.25 0  12.5 0.25 0  12.75 0.25 0  13 0.25 0  13.25 0.25 0  13.5 0.25 0  13.75 0.25 0  14 0.25 0  14.25 0.25 0  14.5 0.25 0  14.75 0.25 0  15 0.25 0  15.25 0.25 0  15.5 0.25 0  15.75 0.25 0  16 0.25 0  16.25 0.25 0  16.5 0.25 0  16.75 0.25 0  17 0.25 0  17.25 0.25 0  17.5 0.25 0  17.75 0.25 0  18 0.25 0  18.25 0.25 0  18.5 0.25 0  18.75 0.25 0  19 0.25 0  19.25 0.25 0  19.5 0.25 0  19.75 0.25 0  20 0.25 0  20.25 0.25 0  20.5 0.25 0  20.75 0.25 0  21 0.25 0  21.25 0.25 0  21.5 0.25 0  21.75 0.25 0  22 0.25 0  22.25 0.25 0  22.5 0.25 0  22.75 0.25 0  23 0.25 0  23.25 0.25 0  23.5 0.25 0  23.75 0.25 0  24 0.25 0  24.25 0.25 0  24.5 0.25 0  24.75 0.25 0  25 0.25 0  0 0.5 0  0.25 0.5 0  0.5 0.5 0  0.75 0.5 0  1 0.5 0  1.25 0.5 0  1.5 0.5 0  1.75 0.5 0  2 0.5 0  2.25 0.5 0  2.5 0.5 0  2.75 0.5 0  3 0.5 0  3.25 0.5 0  3.5 0.5 0  3.75 0.5 0  4 0.5 0  4.25 0.5 0  4.5 0.5 0  4.75 0.5 0  5 0.5 0  5.25 0.5 0  5.5 0.5 0  5.75 0.5 0  6 0.5 0  6.25 0.5 0  6.5 0.5 0  6.75 0.5 0  7 0.5 0  7.25 0.5 0  7.5 0.5 0  7.75 0.5 0  8 0.5 0  8.25 0.5 0  8.5 0.5 0  8.75 0.5 0  9 0.5 0  9.25 0.5 0  9.5 0.5 0  9.75 0.5 0  10 0.5 0  10.25 0.5 0  10.5 0.5 0  10.75 0.5 0  11 0.5 0  11.25 0.5 0  11.5 0.5 0  11.75 0.5 0  12 0.5 0  12.25 0.5 0  12.5 0.5 0  12.75 0.5 0  13 0.5 0  13.25 0.5 0  13.5 0.5 0  13.75 0.5 0  14 0.5 0  14.25 0.5 0  14.5 0.5 0  14.75 0.5 0  15 0.5 0  15.25 0.5 0  15.5 0.5 0  15.75 0.5 0  16 0.5 0  16.25 0.5 0  16.5 0.5 0  16.75 0.5 0  17 0.5 0  17.25 0.5 0  17.5 0.5 0  17.75 0.5 0  18 0.5 0  18.25 0.5 0  18.5 0.5 0  18.75 0.5 0  19 0.5 0  19.25 0.5 0  19.5 0.5 0  19.75 0.5 0  20 0.5 0  20.25 0.5 0  20.5 0.5 0  20.75 0.5 0  21 0.5 0  21.25 0.5 0  21.5 0.5 0  21.75 0.5 0  22 0.5 0  22.25 0.5 0  22.5 0.5 0  22.75 0.5 0  23 0.5 0  23.25 0.5 0  23.5 0.5 0  23.75 0.5 0  24 0.5 0  24.25 0.5 0  24.5 0.5 0  24.75 0.5 0  25 0.5 0  0 0.75 0  0.25 0.75 0  0.5 0.75 0  0.75 0.75 0  1 0.75 0  1.25 0.75 0  1.5 0.75 0  1.75 0.75 0  2 0.75 0  2.25 0.75 0  2.5 0.75 0  2.75 0.75 0  3 0.75 0  3.25 0.75 0  3.5 0.75 0  3.75 0.75 0  4 0.75 0  4.25 0.75 0  4.5 0.75 0  4.75 0.75 0  5 0.75 0  5.25 0.75 0  5.5 0.75 0  5.75 0.75 0  6 0.75 0  6.25 0.75 0  6.5 0.75 0  6.75 0.75 0  7 0.75 0  7.25 0.75 0  7.5 0.75 0  7.75 0.75 0  8 0.75 0  8.25 0.75 0  8.5 0.75 0  8.75 0.75 0  9 0.75 0  9.25 0.75 0  9.5 0.75 0  9.75 0.75 0  10 0.75 0  10.25 0.75 0  10.5 0.75 0  10.75 0.75 0  11 0.75 0  11.25 0.75 0  11.5 0.75 0  11.75 0.75 0  12 0.75 0  12.25 0.75 0  12.5 0.75 0  12.75 0.75 0  13 0.75 0  13.25 0.75 0  13.5 0.75 0  13.75 0.75 0  14 0.75 0  14.25 0.75 0  14.5 0.75 0  14.75 0.75 0  15 0.75 0  15.25 0.75 0  15.5 0.75 0  15.75 0.75 0  16 0.75 0  16.25 0.75 0  16.5 0.75 0  16.75 0.75 0  17 0.75 0  17.25 0.75 0  17.5 0.75 0  17.75 0.75 0  18 0.75 0  18.25 0.75 0  18.5 0.75 0  18.75 0.75 0  19 0.75 0  19.25 0.75 0  19.5 0.75 0  19.75 0.75 0  20 0.75 0  20.25 0.75 0  20.5 0.75 0  20.75 0.75 0  21 0.75 0  21.25 0.75 0  21.5 0.75 0  21.75 0.75 0  22 0.75 0  22.25 0.75 0  22.5 0.75 0  22.75 0.75 0  23 0.75 0  23.25 0.75 0  23.5 0.75 0  23.75 0.75 0  24 0.75 0  24.25 0.75 0  24.5 0.75 0  24.75 0.75 0  25 0.75 0  0 1 0  0.25 1 0  0.5 1 0  0.75 1 0  1 1 0  1.25 1 0  1.5 1 0  1.75 1 0  2 1 0  2.25 1 0  2.5 1 0  2.75 1 0  3 1 0  3.25 1 0  3.5 1 0  3.75 1 0  4 1 0  4.25 1 0  4.5 1 0  4.75 1 0  5 1 0  5.25 1 0  5.5 1 0  5.75 1 0  6 1 0  6.25 1 0  6.5 1 0  6.75 1 0  7 1 0  7.25 1 0  7.5 1 0  7.75 1 0  8 1 0  8.25 1 0  8.5 1 0  8.75 1 0  9 1 0  9.25 1 0  9.5 1 0  9.75 1 0  10 1 0  10.25 1 0  10.5 1 0  10.75 1 0  11 1 0  11.25 1 0  11.5 1 0  11.75 1 0  12 1 0  12.25 1 0  12.5 1 0  12.75 1 0  13 1 0  13.25 1 0  13.5 1 0  13.75 1 0  14 1 0  14.25 1 0  14.5 1 0  14.75 1 0  15 1 0  15.25 1 0  15.5 1 0  15.75 1 0  16 1 0  16.25 1 0  16.5 1 0  16.75 1 0  17 1 0  17.25 1 0  17.5 1 0  17.75 1 0  18 1 0  18.25 1 0  18.5 1 0  18.75 1 0  19 1 0  19.25 1 0  19.5 1 0  19.75 1 0  20 1 0  20.25 1 0  20.5 1 0  20.75 1 0  21 1 0  21.25 1 0  21.5 1 0  21.75 1 0  22 1 0  22.25 1 0  22.5 1 0  22.75 1 0  23 1 0  23.25 1 0  23.5 1 0  23.75 1 0  24 1 0  24.25 1 0  24.5 1 0  24.75 1 0  25 1 0  0 1.25 0  0.25 1.25 0  0.5 1.25 0  0.75 1.25 0  1 1.25 0  1.25 1.25 0  1.5 1.25 0  1.75 1.25 0  2 1.25 0  2.25 1.25 0  2.5 1.25 0  2.75 1.25 0  3 1.25 0  3.25 1.25 0  3.5 1.25 0  3.75 1.25 0  4 1.25 0  4.25 1.25 0  4.5 1.25 0  4.75 1.25 0  5 1.25 0  5.25 1.25 0  5.5 1.25 0  5.75 1.25 0  6 1.25 0  6.25 1.25 0  6.5 1.25 0  6.75 1.25 0  7 1.25 0  7.25 1.25 0  7.5 1.25 0  7.75 1.25 0  8 1.25 0  8.25 1.25 0  8.5 1.25 0  8.75 1.25 0  9 1.25 0  9.25 1.25 0  9.5 1.25 0  9.75 1.25 0  10 1.25 0  10.25 1.25 0  10.5 1.25 0  10.75 1.25 0  11 1.25 0  11.25 1.25 0  11.5 1.25 0  11.75 1.25 0  12 1.25 0  12.25 1.25 0  12.5 1.25 0  12.75 1.25 0  13 1.25 0  13.25 1.25 0  13.5 1.25 0  13.75 1.25 0  14 1.25 0  14.25 1.25 0  14.5 1.25 0  14.75 1.25 0  15 1.25 0  15.25 1.25 0  15.5 1.25 0  15.75 1.25 0  16 1.25 0  16.25 1.25 0  16.5 1.25 0  16.75 1.25 0  17 1.25 0  17.25 1.25 0  17.5 1.25 0  17.75 1.25 0  18 1.25 0  18.25 1.25 0  18.5 1.25 0  18.75 1.25 0  19 1.25 0  19.25 1.25 0  19.5 1.25 0  19.75 1.25 0  20 1.25 0  20.25 1.25 0  20.5 1.25 0  20.75 1.25 0  21 1.25 0  21.25 1.25 0  21.5 1.25 0  21.75 1.25 0  22 1.25 0  22.25 1.25 0  22.5 1.25 0  22.75 1.25 0  23 1.25 0  23.25 1.25 0  23.5 1.25 0  23.75 1.25 0  24 1.25 0  24.25 1.25 0  24.5 1.25 0  24.75 1.25 0  25 1.25 0  0 1.5 0  0.25 1.5 0  0.5 1.5 0  0.75 1.5 0  1 1.5 0  1.25 1.5 0  1.5 1.5 0  1.75 1.5 0  2 1.5 0  2.25 1.5 0  2.5 1.5 0  2.75 1.5 0  3 1.5 0  3.25 1.5 0  3.5 1.5 0  3.75 1.5 0  4 1.5 0  4.25 1.5 0  4.5 1.5 0  4.75 1.5 0  5 1.5 0  5.25 1.5 0  5.5 1.5 0  5.75 1.5 0  6 1.5 0  6.25 1.5 0  6.5 1.5 0  6.75 1.5 0  7 1.5 0  7.25 1.5 0  7.5 1.5 0  7.75 1.5 0  8 1.5 0  8.25 1.5 0  8.5 1.5 0  8.75 1.5 0  9 1.5 0  9.25 1.5 0  9.5 1.5 0  9.75 1.5 0  10 1.5 0  10.25 1.5 0  10.5 1.5 0  10.75 1.5 0  11 1.5 0  11.25 1.5 0  11.5 1.5 0  11.75 1.5 0  12 1.5 0  12.25 1.5 0  12.5 1.5 0  12.75 1.5 0  13 1.5 0  13.25 1.5 0  13.5 1.5 0  13.75 1.5 0  14 1.5 0  14.25 1.5 0  14.5 1.5 0  14.75 1.5 0  15 1.5 0  15.25 1.5 0  15.5 1.5 0  15.75 1.5 0  16 1.5 0  16.25 1.5 0  16.5 1.5 0  16.75 1.5 0  17 1.5 0  17.25 1.5 0  17.5 1.5 0  17.75 1.5 0  18 1.5 0  18.25 1.5 0  18.5 1.5 0  18.75 1.5 0  19 1.5 0  19.25 1.5 0  19.5 1.5 0  19.75 1.5 0  20 1.5 0  20.25 1.5 0  20.5 1.5 0  20.75 1.5 0  21 1.5 0  21.25 1.5 0  21.5 1.5 0  21.75 1.5 0  22 1.5 0  22.25 1.5 0  22.5 1.5 0  22.75 1.5 0  23 1.5 0  23.25 1.5 0  23.5 1.5 0  23.75 1.5 0  24 1.5 0  24.25 1.5 0  24.5 1.5 0  24.75 1.5 0  25 1.5 0  0 1.75 0  0.25 1.75 0  0.5 1.75 0  0.75 1.75 0  1 1.75 0  1.25 1.75 0  1.5 1.75 0  1.75 1.75 0  2 1.75 0  2.25 1.75 0  2.5 1.75 0  2.75 1.75 0  3 1.75 0  3.25 1.75 0  3.5 1.75 0  3.75 1.75 0  4 1.75 0  4.25 1.75 0  4.5 1.75 0  4.75 1.75 0  5 1.75 0  5.25 1.75 0  5.5 1.75 0  5.75 1.75 0  6 1.75 0  6.25 1.75 0  6.5 1.75 0  6.75 1.75 0  7 1.75 0  7.25 1.75 0  7.5 1.75 0  7.75 1.75 0  8 1.75 0  8.25 1.75 0  8.5 1.75 0  8.75 1.75 0  9 1.75 0  9.25 1.75 0  9.5 1.75 0  9.75 1.75 0  10 1.75 0  10.25 1.75 0  10.5 1.75 0  10.75 1.75 0  11 1.75 0  11.25 1.75 0  11.5 1.75 0  11.75 1.75 0  12 1.75 0  12.25 1.75 0  12.5 1.75 0  12.75 1.75 0  13 1.75 0  13.25 1.75 0  13.5 1.75 0  13.75 1.75 0  14 1.75 0  14.25 1.75 0  14.5 1.75 0  14.75 1.75 0  15 1.75 0  15.25 1.75 0  15.5 1.75 0  15.75 1.75 0  16 1.75 0  16.25 1.75 0  16.5 1.75 0  16.75 1.75 0  17 1.75 0  17.25 1.75 0  17.5 1.75 0  17.75 1.75 0  18 1.75 0  18.25 1.75 0  18.5 1.75 0  18.75 1.75 0  19 1.75 0  19.25 1.75 0  19.5 1.75 0  19.75 1.75 0  20 1.75 0  20.25 1.75 0  20.5 1.75 0  20.75 1.75 0  21 1.75 0  21.25 1.75 0  21.5 1.75 0  21.75 1.75 0  22 1.75 0  22.25 1.75 0  22.5 1.75 0  22.75 1.75 0  23 1.75 0  23.25 1.75 0  23.5 1.75 0  23.75 1.75 0  24 1.75 0  24.25 1.75 0  24.5 1.75 0  24.75 1.75 0  25 1.75 0  0 2 0  0.25 2 0  0.5 2 0  0.75 2 0  1 2 0  1.25 2 0  1.5 2 0  1.75 2 0  2 2 0  2.25 2 0  2.5 2 0  2.75 2 0  3 2 0  3.25 2 0  3.5 2 0  3.75 2 0  4 2 0  4.25 2 0  4.5 2 0  4.75 2 0  5 2 0  5.25 2 0  5.5 2 0  5.75 2 0  6 2 0  6.25 2 0  6.5 2 0  6.75 2 0  7 2 0  7.25 2 0  7.5 2 0  7.75 2 0  8 2 0  8.25 2 0  8.5 2 0  8.75 2 0  9 2 0  9.25 2 0  9.5 2 0  9.75 2 0  10 2 0  10.25 2 0  10.5 2 0  10.75 2 0  11 2 0  11.25 2 0 
[...]
<PointData  Scalars="f_26"> 
<DataArray  type="Float64"  Name="f_26"  format="ascii">2.2541034846206588e-05  2.2545618959524078e-05  2.2557084510566813e-05  2.2575804063175138e-05  2.2601876772775174e-05  2.2635226412114971e-05  2.2675595661057333e-05  2.2722546759673592e-05  2.2775484748417037e-05  2.2833693710358288e-05  2.2896373911159622e-05  2.2962673589970607e-05  2.3031715216845709e-05  2.3102618758403062e-05  2.3174524050677268e-05  2.3246612652436050e-05  2.3318128149096802e-05  2.3388393350424414e-05  2.3456823014104564e-05  2.3522931287428751e-05  2.3586333714673907e-05  2.3646744239740769e-05  2.3703968056917112e-05  2.3757891400132520e-05  2.3808469425216424e-05  2.3855713266785842e-05  2.3899677187811234e-05  2.3940446530968029e-05  2.3978126963784267e-05  2.4012835310301986e-05  2.4044692095247424e-05  2.4073815798112537e-05  2.4100318723189500e-05  2.4124304332782314e-05  2.4145865858194053e-05  2.4165085990088334e-05  2.4182037450503219e-05  2.4196784258197294e-05  2.4209383513238089e-05  2.4219887542898794e-05  2.4228346266966203e-05  2.4234809655175097e-05  2.4239330162008271e-05  2.4241965034450911e-05  2.4242778396897875e-05  2.4241843025176445e-05  2.4239241729819853e-05  2.4235068278780840e-05  2.4229427803200083e-05  2.4222436647903039e-05  2.4214221651753682e-05  2.4204918871850276e-05  2.4194671798862327e-05  2.4183629146602619e-05  2.4171942334268915e-05  2.4159762811034258e-05  2.4147239395873277e-05  2.4134515816978163e-05  2.4121728631932315e-05  2.4109005690367505e-05  2.4096465265188380e-05  2.4084215928461684e-05  2.4072357187280502e-05  2.4060980828220356e-05  2.4050172852139498e-05  2.4040015820025588e-05  2.4030591381004102e-05  2.4021982720305328e-05  2.4014276651517108e-05  2.4007565085937511e-05  2.4001945642794487e-05  2.3997521216393604e-05  2.3994398387160237e-05  2.3992684648806771e-05  2.3992484517848030e-05  2.3993894687632610e-05  2.3996998479381294e-05  2.4001859919550893e-05  2.4008517828627493e-05  2.4016980334731248e-05  2.4027220221592544e-05  2.4039171482565552e-05  2.4052727381611672e-05  2.4067740223334100e-05  2.4084022915262114e-05  2.4101352277507036e-05  2.4119473930121893e-05  2.4138108479616235e-05  2.4156958644172874e-05  2.4175716910085063e-05  2.4194073303289500e-05  2.4211722888106497e-05  2.4228372663899809e-05  2.4243747608110603e-05  2.4257595694478613e-05  2.4269691771104417e-05  2.4279840152179695e-05  2.4287875458224208e-05  2.4293659829334284e-05  2.4297068570633592e-05  2.4297928707508247e-05  2.2543694444800046e-05  2.2547620261118132e-05  2.2558909789495957e-05  2.2577553108688497e-05  2.2603559276155305e-05  2.2636826945240279e-05  2.2677091111610813e-05  2.2723912668651502e-05  2.2776698197210611e-05  2.2834734637719034e-05  2.2897225620327872e-05  2.2963322909803999e-05  2.3032152559670608e-05  2.3102838129741289e-05  2.3174522983771990e-05  2.3246392045594167e-05  2.3317692008529727e-05  2.3387748455738574e-05  2.3455978529818133e-05  2.3521898346000173e-05  2.3585124995333469e-05  2.3645373563451180e-05  2.3702450012220129e-05  2.3756241008747797e-05  2.3806701850992209e-05  2.3853843567466731e-05  2.3897720106235483e-05  2.3938416320656518e-05  2.3976037243234435e-05  2.4010698940406910e-05  2.4042521074876550e-05  2.4071621173795090e-05  2.4098110509851536e-05  2.4122091443465285e-05  2.4143656041534406e-05  2.4162885775015951e-05  2.4179852098112806e-05  2.4194617721084075e-05  2.4207238402813228e-05  2.4217765105368396e-05  2.4226246368829500e-05  2.4232730779322314e-05  2.4237269415808438e-05  2.4239918171620880e-05  2.4240739855413715e-05  2.4239805983973568e-05  2.4237198187449076e-05  2.4233009157443558e-05  2.4227343081568248e-05  2.4220315525736816e-05  2.4212052748483073e-05  2.4202690459949926e-05  2.4192372071040168e-05  2.4181246513625872e-05  2.4169465747813314e-05  2.4157182103464831e-05  2.4144545626582095e-05  2.4131701613054581e-05  2.4118788509735677e-05  2.4105936344165605e-05  2.4093265809492873e-05  2.4080888082021479e-05  2.4068905388789112e-05  2.4057412276488377e-05  2.4046497466572459e-05  2.4036246120511048e-05  2.4026742289544989e-05  2.4018071289768786e-05  2.4010321729573672e-05  2.4003586924563320e-05  2.3997965465555770e-05  2.3993560757108891e-05  2.3990479414434179e-05  2.3988828491345218e-05  2.3988711605388972e-05  2.3990224121752267e-05  2.3993447647353575e-05  2.3998444162857870e-05  2.4005250175665135e-05  2.4013871304781917e-05  2.4024277704327015e-05  2.4036400694306136e-05  2.4050130896474356e-05  2.4065318074330588e-05  2.4081772757650961e-05  2.4099269604302280e-05  2.4117552327847294e-05  2.4136339911255122e-05  2.4155333745893658e-05  2.4174225288775919e-05  2.4192703823262534e-05  2.4210463937658598e-05  2.4227212396179814e-05  2.4242674157402984e-05  2.4256597383540113e-05  2.4268757365550949e-05  2.4278959354864410e-05  2.4287040372369147e-05  2.4292870435874905e-05  2.4296356015215801e-05  2.4297462640034631e-05  2.2549455784554098e-05  2.2553214254887282e-05  2.2564361747021094e-05  2.2582875347490816e-05  2.2608723119364431e-05  2.2641775658689038e-05  2.2681753484841955e-05  2.2728213520902507e-05  2.2780565569325959e-05  2.2838104002803684e-05  2.2900041930208083e-05  2.2965541428357305e-05  2.3033739188192462e-05  2.3103769548553698e-05  2.3174786649982589e-05  2.3245985972672629e-05  2.3316624259845824e-05  2.3386036337473831e-05  2.3453647522072698e-05  2.3518980846389885e-05  2.3581658964186945e-05  2.3641401157329749e-05  2.3698016278358340e-05  2.3751392692758418e-05  2.3801486348580916e-05  2.3848308031425964e-05  2.3891910704669279e-05  2.3932377631987865e-05  2.3969811767866980e-05  2.4004326707163231e-05  2.4036039321460037e-05  2.4065064083445226e-05  2.4091508990144222e-05  2.4115472937126980e-05  2.4137044362703370e-05  2.4156300967328395e-05  2.4173310313231403e-05  2.4188131117874668e-05  2.4200815068456459e-05  2.4211409000456908e-05  2.4219957299144923e-05  2.4226504397678533e-05  2.4231097258203419e-05  2.4233787732999506e-05  2.4234634711565023e-05  2.4233705967339078e-05  2.4231079625699540e-05  2.4226845184329344e-05  2.4221104029478199e-05  2.4213969408340619e-05  2.4205565839570409e-05  2.4196027971007431e-05  2.4185498925256503e-05  2.4174128208084112e-05  2.4162069288983104e-05  2.4149476994254542e-05  2.4136504876760079e-05  2.4123302739432735e-05  2.4110014488710536e-05  2.4096776477485019e-05  2.4083716464722565e-05  2.4070953272163313e-05  2.4058597160664564e-05  2.4046750884467797e-05  2.4035511316491005e-05  2.4024971477594237e-05  2.4015222753311191e-05  2.4006357047695954e-05  2.3998468609434154e-05  2.3991655272484271e-05  2.3986018882898578e-05  2.3981664734099955e-05  2.3978699902080479e-05  2.3977230455496118e-05  2.3977357607808347e-05  2.3979172972667580e-05  2.3982753172061362e-05  2.3988154121506191e-05  2.3995405370256561e-05  2.4004504900766723e-05  2.4015414786002958e-05  2.4028058063847334e-05  2.4042317116150624e-05  2.4058033740860026e-05  2.4075010987279472e-05  2.4093016697827689e-05  2.4111788577119721e-05  2.4131040503340611e-05  2.4150469718594299e-05  2.4169764491872549e-05  2.4188611843821121e-05  2.4206704955107918e-05  2.4223749944046765e-05  2.4239471785254943e-05  2.4253619239980253e-05  2.4265968774954594e-05  2.4276327570264695e-05  2.4284535913179587e-05  2.4290469716860642e-05  2.4294044953034928e-05  2.4295227172536886e-05  2.2558870652419263e-05  2.2562568031760007e-05  2.2573598012631224e-05  2.2591941844116022e-05  2.2617542153348566e-05  2.2650243267165548e-05  2.2689749453317913e-05  2.2735613366884171e-05  2.2787250309953338e-05  2.2843966435136502e-05  2.2904989937647856e-05  2.2969499482151758e-05  2.3036649035263774e-05  2.3105590576011336e-05  2.3175495998383340e-05  2.3245578283532078e-05  2.3315110942583546e-05  2.3383444323409574e-05  2.3450017562372554e-05  2.3514365473337577e-05  2.3576120263688039e-05  2.3635008499712344e-05  2.3690844132970441e-05  2.3743518618882366e-05  2.3792989218973339e-05  2.3839266511474829e-05  2.3882401983490521e-05  2.3922476383319323e-05  2.3959589308210529e-05  2.3993850315037293e-05  2.4025371683091790e-05  2.4054262834913865e-05  2.4080626332252477e-05  2.4104555305857041e-05  2.4126132144139742e-05  2.4145428250919742e-05  2.4162504681052090e-05  2.4177413470211535e-05  2.4190199487825507e-05  2.4200902657369019e-05  2.4209560403925886e-05  2.4216210203699492e-05  2.4220892123197861e-05  2.4223651246814270e-05  2.4224539900658059e-05  2.4223619588396073e-05  2.4220962562566968e-05  2.4216652963629977e-05  2.4210787470315796e-05  2.4203475419959465e-05  2.4194838377346681e-05  2.4185009155508650e-05  2.4174130321333758e-05  2.4162352251347347e-05  2.4149830836117680e-05  2.4136724962278313e-05  2.4123193925478126e-05  2.4109394942071128e-05  2.4095480928986751e-05  2.4081598707994835e-05  2.4067887761986064e-05  2.4054479628106549e-05  2.4041497958473882e-05  2.4029059218063175e-05  2.4017273926503930e-05  2.4006248291758048e-05  2.3996086034626308e-05  2.3986890168765723e-05  2.3978764485293591e-05  2.3971814496574168e-05  2.3966147621265866e-05  2.3961872441268999e-05  2.3959096928263039e-05  2.3957925618843384e-05  2.3958455807199107e-05  2.3960772915980348e-05  2.3964945291874819e-05  2.3971018744585197e-05  2.3979011198921129e-05  2.3988907853306330e-05  2.4000657229830469e-05  2.4014168459422174e-05  2.4029310072413966e-05  2.4045910464841751e-05  2.4063760092718309e-05  2.4082615321318862e-05  2.4102203736748027e-05  2.4122230625150254e-05  2.4142386251510499e-05  2.4162353532356103e-05  2.4181815697700778e-05  2.4200463575421769e-05  2.4218002199907321e-05  2.4234156537494818e-05  2.4248676224790142e-05  2.4261339326177871e-05  2.4271955234509055e-05  2.4280366973636369e-05  2.4286453309638159e-05  2.4290131083125887e-05  2.4291357172567189e-05  2.2572380093686929e-05  2.2576032581756681e-05  2.2586932527349455e-05  2.2605050308328099e-05  2.2630301850973672e-05  2.2662504603729953e-05  2.2701345964789120e-05  2.2746374875373533e-05  2.2797014349917253e-05  2.2852586014807112e-05  2.2912337922800843e-05  2.2975470822890047e-05  2.3041161947165166e-05  2.3108587240812736e-05  2.3176942867013482e-05  2.3245465842468098e-05  2.3313452803917681e-05  2.3380275602045874e-05  2.3445392618350734e-05  2.3508355179600133e-05  2.3568808998586260e-05  2.3626491063795910e-05  2.3681222761852824e-05  2.3732900220339241e-05  2.3781482913859358e-05  2.3826981512895209e-05  2.3869445812177913e-05  2.3908953391629223e-05  2.3945599470511302e-05  2.3979488236953276e-05  2.4010725783717921e-05  2.4039414662264477e-05  2.4065649980597080e-05  2.4089516912467822e-05  2.4111089451112739e-05  2.4130430224442227e-05  2.4147591185527511e-05  2.4162614998117123e-05  2.4175536948394789e-05  2.4186387228614562e-05  2.4195193453627400e-05  2.4201983286205094e-05  2.4206787060526434e-05  2.4209640304740400e-05  2.4210586073146597e-05  2.4209677006666827e-05  2.4206977047762891e-05  2.4202562743942787e-05  2.4196524083823570e-05  2.4188964822692686e-05  2.4180002271673791e-05  2.4169766546483469e-05  2.4158399298145897e-05  2.4146051977804787e-05  2.4132883718904714e-05  2.4119058949670070e-05  2.4104744873623128e-05  2.4090108972369100e-05  2.4075316689930426e-05  2.4060529449312022e-05  2.4045903128811134e-05  2.4031587088518907e-05  2.4017723788811607e-05  2.4004448986201739e-05  2.3991892432647416e-05  2.3980178947864611e-05  2.3969429685972692e-05  2.3959763383046235e-05  2.3951297354969222e-05  2.3944148018139757e-05  2.3938430730174117e-05  2.3934258793165952e-05  2.3931741525845737e-05  2.3930981389031052e-05  2.3932070235418071e-05  2.3935084843175705e-05  2.3940081975307718e-05  2.3947093275448959e-05  2.3956120358214418e-05  2.3967130472213084e-05  2.3980053102206084e-05  2.3994777832254550e-05  2.4011153716025844e-05  2.4028990299217227e-05  2.4048060321129731e-05  2.4068103999142906e-05  2.4088834683845076e-05  2.4109945576170050e-05  2.4131117131326194e-05  2.4152024744257050e-05  2.4172346319983902e-05  2.4191769376841963e-05  2.4209997404611998e-05  2.4226755293409187e-05  2.4241793752537155e-05  2.4254892741687709e-05  2.4265864030950824e-05  2.4274553077276870e-05  2.4280840413200411e-05  2.4284642570412454e-05  2.4285911963241481e-05  2.2590455005965697e-05  2.2594052468374108e-05  2.2604782281722580e-05  2.2622595138986667e-05  2.2647377713910166e-05  2.2678920153001982e-05  2.2716893245305441e-05  2.2760843130264389e-05  2.2810202331144101e-05  2.2864310733744152e-05  2.2922439972745426e-05  2.2983817407429788e-05  2.3047648694395446e-05  2.3113139360303463e-05  2.3179515726489220e-05  2.3246044817650395e-05  2.3312052259021322e-05  2.3376936973422350e-05  2.3440181703054285e-05  2.3501358825208080e-05  2.3560131436232566e-05  2.3616250126993881e-05  2.3669546201036870e-05  2.3719922271120721e-05  2.3767341218716556e-05  2.3811814441470702e-05  2.3853390180968999e-05  2.3892142552542352e-05  2.3928161719595149e-05  2.3961545487820783e-05  2.3992392451933520e-05  2.4020796714292752e-05  2.4046844111037978e-05  2.4070609824049502e-05  2.4092157221743917e-05  2.4111537753656800e-05  2.4128791718559425e-05  2.4143949729737822e-05  2.4157034710945943e-05  2.4168064269963405e-05  2.4177053311694803e-05  2.4184016767840162e-05  2.4188972334247863e-05  2.4191943119439979e-05  2.4192960118203635e-05  2.4192064432736054e-05  2.4189309171205752e-05  2.4184760960707923e-05  2.4178501019664753e-05  2.4170625745050215e-05  2.4161246783567748e-05  2.4150490573858704e-05  2.4138497369136929e-05  2.4125419775699905e-05  2.4111420871052239e-05  2.4096671993553089e-05  2.4081350320593798e-05  2.4065636371058284e-05  2.4049711577097060e-05  2.4033756067567208e-05  2.4017946789446547e-05  2.4002456064125929e-05  2.3987450634297892e-05  2.3973091207293433e-05  2.3959532446536424e-05  2.3946923309485147e-05  2.3935407583506968e-05  2.3925124435802346e-05  2.3916208774158168e-05  2.3908791215102735e-05  2.3902997476492089e-05  2.3898947052421407e-05  2.3896751087501519e-05  2.3896509441036021e-05  2.3898307013918317e-05  2.3902209495265376e-05  2.3908258764182050e-05  2.3916468246613906e-05  2.3926818570482103e-05  2.3939253877994117e-05  2.3953679138148583e-05  2.3969958753897834e-05  2.3987916679579323e-05  2.4007338161113758e-05  2.4027973093456744e-05  2.4049540868687744e-05  2.4071736476777391e-05  2.4094237531671226e-05  2.4116711837602451e-05  2.4138825090330506e-05  2.4160248326365346e-05  2.4180664786435911e-05  2.4199775939700120e-05  2.4217306511997409e-05  2.4233008463226129e-05  2.4246663954108684e-05  2.4258087419312014e-05  2.4267126906903267e-05  2.4273664828817279e-05  2.4277618158777158e-05  2.4278937916170775e-05  2.2613598248490204e-05  2.2617119807147137e-05  2.2627620396999865e-05  2.2645028990319454e-05  2.2669203603242558e-05  2.2699908751850311e-05  2.2736800231518227e-05  2.2779422729354217e-05  2.2827219689365725e-05  2.2879551159877597e-05  2.2935715028435274e-05  2.2994968766343340e-05  2.3056550687900439e-05  2.3119700684823266e-05  2.3183680366752030e-05  2.3247792044613133e-05  2.3311395575224511e-05  2.3373921998476862e-05  2.3434883126427784e-05  2.3493876652932711e-05  2.3550586806469843e-05  2.3604780969437258e-05  2.3656302978806074e-05  2.3705063986004891e-05  2.3751031795511455e-05  2.3794219545922335e-05  2.3834674475756756e-05  2.3872467360210202e-05  2.3907683040603627e-05  2.3940412314018283e-05  2.3970745317651969e-05  2.3998766435556954e-05  2.4024550674895903e-05  2.4048161402236632e-05  2.4069649293983464e-05  2.4089052334807853e-05  2.4106396690158020e-05  2.4121698280361747e-05  2.4134964891782423e-05  2.4146198672699036e-05  2.4155398876181449e-05  2.4162564727657009e-05  2.4167698309840478e-05  2.4170807371270805e-05  2.4171907976275434e-05  2.4171026923592194e-05  2.4168203868389428e-05  2.4163493088731205e-05  2.4156964843681625e-05  2.4148706277488449e-05  2.4138821833910514e-05  2.4127433157824931e-05  2.4114678478388174e-05  2.4100711489190172e-05  2.4085699765189510e-05  2.4069822782072315e-05  2.4053269628618957e-05  2.4036236523773100e-05  2.4018924264328890e-05  2.4001535733729229e-05  2.3984273595407481e-05  2.3967338274577684e-05  2.3950926300993055e-05  2.3935229044087198e-05  2.3920431824635489e-05  2.3906713338265435e-05  2.3894245281057145e-05  2.3883192031402066e-05  2.3873710219975448e-05  2.3865948014785894e-05  2.3860043962938350e-05  2.3856125265316867e-05  2.3854305413232579e-05  2.3854681183603965e-05  2.3857329066053945e-05  2.3862301274548541e-05  2.3869621569995304e-05  2.3879281180354333e-05  2.3891235143551883e-05  2.3905399409481047e-05  2.3921649016620049e-05  2.3939817605465189e-05  2.3959698447967514e-05  2.3981047066239570e-05  2.4003585395118387e-05  2.4027007324218999e-05  2.4050985349111510e-05  2.4075177980283786e-05  2.4099237511717038e-05  2.4122817742926298e-05  2.4145581278856402e-05  2.4167206095846384e-05  2.4187391149855216e-05  2.4205860903779281e-05  2.4222368751741808e-05  2.4236699407950720e-05  2.4248670395310756e-05  2.4258132804343833e-05  2.4264971487542281e-05  2.4269104809034638e-05  2.4270484022528885e-05  2.2642310500807812e-05  2.2645729846445735e-05  2.2655929960176231e-05  2.2672820223214570e-05  2.2696233811789134e-05  2.2725913638836539e-05  2.2761503608163839e-05  2.2802548904151650e-05  2.2848505158641641e-05  2.2898753854882981e-05  2.2952620940451583e-05  2.3009396571315133e-05  2.3068355035574050e-05  2.3128774490545721e-05  2.3189956120125616e-05  2.3251242004261281e-05  2.3312030748595107e-05  2.3371789926372997e-05  2.3430064624427311e-05  2.3486481760004968e-05  2.3540750238426019e-05  2.3592657373289396e-05  2.3642062245141064e-05  2.3688886815147027e-05  2.3733105644159363e-05  2.3774735015835034e-05  2.3813822152670641e-05  2.3850435073208363e-05  2.3884653489997603e-05  2.3916561007474297e-05  2.3946238756546130e-05  2.3973760502716116e-05  2.3999189187538196e-05  2.4022574807244200e-05  2.4043953494585865e-05  2.4063347647113110e-05  2.4080766934272762e-05  2.4096210014242888e-05  2.4109666797065191e-05  2.4121121101434360e-05  2.4130553566677395e-05  2.4137944697384345e-05  2.4143277934362881e-05  2.4146542660817028e-05  2.4147737065921403e-05  2.4146870798685935e-05  2.4143967353046125e-05  2.4139066130818873e-05  2.4132224133337753e-05  2.4123517236392198e-05  2.4113041007915624e-05  2.4100911035073159e-05  2.4087262738126752e-05  2.4072250663366256e-05  2.4056047266473536e-05  2.4038841220106475e-05  2.4020835303591422e-05  2.4002243956006890e-05  2.3983290593754637e-05  2.3964204806954012e-05  2.3945219552999698e-05  2.3926568458529527e-05  2.3908483322208450e-05  2.3891191880987281e-05  2.3874915864248775e-05  2.3859869317331404e-05  2.3846257133183051e-05  2.3834273693689246e-05  2.3824101495734612e-05  2.3815909625681762e-05  2.3809851952710153e-05  2.3806064937566282e-05  2.3804664997877844e-05  2.3805745431250716e-05  2.3809372967796758e-05  2.3815584097658666e-05  2.3824381388375289e-05  2.3835730062922074e-05  2.3849555143741786e-05  2.3865739474322121e-05  2.3884122903744355e-05  2.3904502860533910e-05  2.3926636453650495e-05  2.3950244128319092e-05  2.3975014783930607e-05  2.4000612143947870e-05  2.4026682067477608e-05  2.4052860420965155e-05  2.4078781094681650e-05  2.4104083755617755e-05  2.4128420973914911e-05  2.4151464436949924e-05  2.4172910062926641e-05  2.4192481931795972e-05  2.4209935053017136e-05  2.4225057076060823e-05  2.4237669112021468e-05  2.4247625867757146e-05  2.4254815296879215e-05  2.4259157953204762e-05  2.4260606217331367e-05  2.2677047177362470e-05  2.2680335685498563e-05  2.2690158290323965e-05  2.2706409014127769e-05  2.2728902036277094e-05  2.2757364350075625e-05  2.2791432238984584e-05  2.2830653963976982e-05  2.2874498735185422e-05  2.2922370464398303e-05  2.2973624411961835e-05  2.3027585268777834e-05  2.3083565796894680e-05  2.3140885457265220e-05  2.3198888418508767e-05  2.3256960155550176e-05  2.3314541736171012e-05  2.3371140967732439e-05  2.3426339821982835e-05  2.3479797897080004e-05  2.3531252030198075e-05  2.3580512478330722e