<?xml version="1.0"?>
<VTKFile type="UnstructuredGrid"  version="0.1"  >
<UnstructuredGrid>
<Piece  NumberOfPoints="10201" NumberOfCells="20000">
<Points>
<DataArray  type="Float64"  NumberOfComponents="3"  format="ascii">0 0 0  0.25 0 0  0.5 0 0  0.75 0 0  1 0 0  1.25 0 0  1.5 0 0  1.75 0 0  2 0 0  2.25 0 0  2.5 0 0  2.75 0 0  3 0 0  3.25 0 0  3.5 0 0  3.75 0 0  4 0 0  4.25 0 0  4.5 0 0  4.75 0 0  5 0 0  5.25 0 0  5.5 0 0  5.75 0 0  6 0 0  6.25 0 0  6.5 0 0  6.75 0 0  7 0 0  7.25 0 0  7.5 0 0  7.75 0 0  8 0 0  8.25 0 0  8.5 0 0  8.75 0 0  9 0 0  9.25 0 0  9.5 0 0  9.75 0 0  10 0 0  10.25 0 0  10.5 0 0  10.75 0 0  11 0 0  11.25 0 0  11.5 0 0  11.75 0 0  12 0 0  12.25 0 0  12.5 0 0  12.75 0 0  13 0 0  13.25 0 0  13.5 0 0  13.75 0 0  14 0 0  14.25 0 0  14.5 0 0  14.75 0 0  15 0 0  15.25 0 0  15.5 0 0  15.75 0 0  16 0 0  16.25 0 0  16.5 0 0  16.75 0 0  17 0 0  17.25 0 0  17.5 0 0  17.75 0 0  18 0 0  18.25 0 0  18.5 0 0  18.75 0 0  19 0 0  19.25 0 0  19.5 0 0  19.75 0 0  20 0 0  20.25 0 0  20.5 0 0  20.75 0 0  21 0 0  21.25 0 0  21.5 0 0  21.75 0 0  22 0 0  22.25 0 0  22.5 0 0  22.75 0 0  23 0 0  23.25 0 0  23.5 0 0  23.75 0 0  24 0 0  24.25 0 0  24.5 0 0  24.75 0 0  25 0 0  0 0.25 0  0.25 0.25 0  0.5 0.25 0  0.75 0.25 0  1 0.25 0  1.25 0.25 0  1.5 0.25 0  1.75 0.25 0  2 0.25 0  2.25 0.25 0  2.5 0.25 0  2.75 0.25 0  3 0.25 0  3.25 0.25 0  3.5 0.25 0  3.75 0.25 0  4 0.25 0  4.25 0.25 0  4.5 0.25 0  4.75 0.25 0  5 0.25 0  5.25 0.25 0  5.5 0.25 0  5.75 0.25 0  6 0.25 0  6.25 0.25 0  6.5 0.25 0  6.75 0.25 0  7 0.25 0  7.25 0.25 0  7.5 0.25 0  7.75 0.25 0  8 0.25 0  8.25 0.25 0  8.5 0.25 0  8.75 0.25 0  9 0.25 0  9.25 0.25 0  9.5 0.25 0  9.75 0.25 0  10 0.25 0  10.25 0.25 0  10.5 0.25 0  10.75 0.25 0  11 0.25 0  11.25 0.25 0  11.5 0.25 0  11.75 0.25 0  12 0.25 0  12.25 0.25 0  12.5 0.25 0  12.75 0.25 0  13 0.25 0  13.25 0.25 0  13.5 0.25 0  13.75 0.25 0  14 0.25 0  14.25 0.25 0  14.5 0.25 0  14.75 0.25 0  15 0.25 0  15.25 0.25 0  15.5 0.25 0  15.75 0.25 0  16 0.25 0  16.25 0.25 0  16.5 0.25 0  16.75 0.25 0  17 0.25 0  17.25 0.25 0  17.5 0.25 0  17.75 0.25 0  18 0.25 0  18.25 0.25 0  18.5 0.25 0  18.75 0.25 0  19 0.25 0  19.25 0.25 0  19.5 0.25 0  19.75 0.25 0  20 0.25 0  20.25 0.25 0  20.5 0.25 0  20.75 0.25 0  21 0.25 0  21.25 0.25 0  21.5 0.25 0  21.75 0.25 0  22 0.25 0  22.25 0.25 0  22.5 0.25 0  22.75 0.25 0  23 0.25 0  23.25 0.25 0  23.5 0.25 0  23.75 0.25 0  24 0.25 0  24.25 0.25 0  24.5 0.25 0  24.75 0.25 0  25 0.25 0  0 0.5 0  0.25 0.5 0  0.5 0.5 0  0.75 0.5 0  1 0.5 0  1.25 0.5 0  1.5 0.5 0  1.75 0.5 0  2 0.5 0  2.25 0.5 0  2.5 0.5 0  2.75 0.5 0  3 0.5 0  3.25 0.5 0  3.5 0.5 0  3.75 0.5 0  4 0.5 0  4.25 0.5 0  4.5 0.5 0  4.75 0.5 0  5 0.5 0  5.25 0.5 0  5.5 0.5 0  5.75 0.5 0  6 0.5 0  6.25 0.5 0  6.5 0.5 0  6.75 0.5 0  7 0.5 0  7.25 0.5 0  7.5 0.5 0  7.75 0.5 0  8 0.5 0  8.25 0.5 0  8.5 0.5 0  8.75 0.5 0  9 0.5 0  9.25 0.5 0  9.5 0.5 0  9.75 0.5 0  10 0.5 0  10.25 0.5 0  10.5 0.5 0  10.75 0.5 0  11 0.5 0  11.25 0.5 0  11.5 0.5 0  11.75 0.5 0  12 0.5 0  12.25 0.5 0  12.5 0.5 0  12.75 0.5 0  13 0.5 0  13.25 0.5 0  13.5 0.5 0  13.75 0.5 0  14 0.5 0  14.25 0.5 0  14.5 0.5 0  14.75 0.5 0  15 0.5 0  15.25 0.5 0  15.5 0.5 0  15.75 0.5 0  16 0.5 0  16.25 0.5 0  16.5 0.5 0  16.75 0.5 0  17 0.5 0  17.25 0.5 0  17.5 0.5 0  17.75 0.5 0  18 0.5 0  18.25 0.5 0  18.5 0.5 0  18.75 0.5 0  19 0.5 0  19.25 0.5 0  19.5 0.5 0  19.75 0.5 0  20 0.5 0  20.25 0.5 0  20.5 0.5 0  20.75 0.5 0  21 0.5 0  21.25 0.5 0  21.5 0.5 0  21.75 0.5 0  22 0.5 0  22.25 0.5 0  22.5 0.5 0  22.75 0.5 0  23 0.5 0  23.25 0.5 0  23.5 0.5 0  23.75 0.5 0  24 0.5 0  24.25 0.5 0  24.5 0.5 0  24.75 0.5 0  25 0.5 0  0 0.75 0  0.25 0.75 0  0.5 0.75 0  0.75 0.75 0  1 0.75 0  1.25 0.75 0  1.5 0.75 0  1.75 0.75 0  2 0.75 0  2.25 0.75 0  2.5 0.75 0  2.75 0.75 0  3 0.75 0  3.25 0.75 0  3.5 0.75 0  3.75 0.75 0  4 0.75 0  4.25 0.75 0  4.5 0.75 0  4.75 0.75 0  5 0.75 0  5.25 0.75 0  5.5 0.75 0  5.75 0.75 0  6 0.75 0  6.25 0.75 0  6.5 0.75 0  6.75 0.75 0  7 0.75 0  7.25 0.75 0  7.5 0.75 0  7.75 0.75 0  8 0.75 0  8.25 0.75 0  8.5 0.75 0  8.75 0.75 0  9 0.75 0  9.25 0.75 0  9.5 0.75 0  9.75 0.75 0  10 0.75 0  10.25 0.75 0  10.5 0.75 0  10.75 0.75 0  11 0.75 0  11.25 0.75 0  11.5 0.75 0  11.75 0.75 0  12 0.75 0  12.25 0.75 0  12.5 0.75 0  12.75 0.75 0  13 0.75 0  13.25 0.75 0  13.5 0.75 0  13.75 0.75 0  14 0.75 0  14.25 0.75 0  14.5 0.75 0  14.75 0.75 0  15 0.75 0  15.25 0.75 0  15.5 0.75 0  15.75 0.75 0  16 0.75 0  16.25 0.75 0  16.5 0.75 0  16.75 0.75 0  17 0.75 0  17.25 0.75 0  17.5 0.75 0  17.75 0.75 0  18 0.75 0  18.25 0.75 0  18.5 0.75 0  18.75 0.75 0  19 0.75 0  19.25 0.75 0  19.5 0.75 0  19.75 0.75 0  20 0.75 0  20.25 0.75 0  20.5 0.75 0  20.75 0.75 0  21 0.75 0  21.25 0.75 0  21.5 0.75 0  21.75 0.75 0  22 0.75 0  22.25 0.75 0  22.5 0.75 0  22.75 0.75 0  23 0.75 0  23.25 0.75 0  23.5 0.75 0  23.75 0.75 0  24 0.75 0  24.25 0.75 0  24.5 0.75 0  24.75 0.75 0  25 0.75 0  0 1 0  0.25 1 0  0.5 1 0  0.75 1 0  1 1 0  1.25 1 0  1.5 1 0  1.75 1 0  2 1 0  2.25 1 0  2.5 1 0  2.75 1 0  3 1 0  3.25 1 0  3.5 1 0  3.75 1 0  4 1 0  4.25 1 0  4.5 1 0  4.75 1 0  5 1 0  5.25 1 0  5.5 1 0  5.75 1 0  6 1 0  6.25 1 0  6.5 1 0  6.75 1 0  7 1 0  7.25 1 0  7.5 1 0  7.75 1 0  8 1 0  8.25 1 0  8.5 1 0  8.75 1 0  9 1 0  9.25 1 0  9.5 1 0  9.75 1 0  10 1 0  10.25 1 0  10.5 1 0  10.75 1 0  11 1 0  11.25 1 0  11.5 1 0  11.75 1 0  12 1 0  12.25 1 0  12.5 1 0  12.75 1 0  13 1 0  13.25 1 0  13.5 1 0  13.75 1 0  14 1 0  14.25 1 0  14.5 1 0  14.75 1 0  15 1 0  15.25 1 0  15.5 1 0  15.75 1 0  16 1 0  16.25 1 0  16.5 1 0  16.75 1 0  17 1 0  17.25 1 0  17.5 1 0  17.75 1 0  18 1 0  18.25 1 0  18.5 1 0  18.75 1 0  19 1 0  19.25 1 0  19.5 1 0  19.75 1 0  20 1 0  20.25 1 0  20.5 1 0  20.75 1 0  21 1 0  21.25 1 0  21.5 1 0  21.75 1 0  22 1 0  22.25 1 0  22.5 1 0  22.75 1 0  23 1 0  23.25 1 0  23.5 1 0  23.75 1 0  24 1 0  24.25 1 0  24.5 1 0  24.75 1 0  25 1 0  0 1.25 0  0.25 1.25 0  0.5 1.25 0  0.75 1.25 0  1 1.25 0  1.25 1.25 0  1.5 1.25 0  1.75 1.25 0  2 1.25 0  2.25 1.25 0  2.5 1.25 0  2.75 1.25 0  3 1.25 0  3.25 1.25 0  3.5 1.25 0  3.75 1.25 0  4 1.25 0  4.25 1.25 0  4.5 1.25 0  4.75 1.25 0  5 1.25 0  5.25 1.25 0  5.5 1.25 0  5.75 1.25 0  6 1.25 0  6.25 1.25 0  6.5 1.25 0  6.75 1.25 0  7 1.25 0  7.25 1.25 0  7.5 1.25 0  7.75 1.25 0  8 1.25 0  8.25 1.25 0  8.5 1.25 0  8.75 1.25 0  9 1.25 0  9.25 1.25 0  9.5 1.25 0  9.75 1.25 0  10 1.25 0  10.25 1.25 0  10.5 1.25 0  10.75 1.25 0  11 1.25 0  11.25 1.25 0  11.5 1.25 0  11.75 1.25 0  12 1.25 0  12.25 1.25 0  12.5 1.25 0  12.75 1.25 0  13 1.25 0  13.25 1.25 0  13.5 1.25 0  13.75 1.25 0  14 1.25 0  14.25 1.25 0  14.5 1.25 0  14.75 1.25 0  15 1.25 0  15.25 1.25 0  15.5 1.25 0  15.75 1.25 0  16 1.25 0  16.25 1.25 0  16.5 1.25 0  16.75 1.25 0  17 1.25 0  17.25 1.25 0  17.5 1.25 0  17.75 1.25 0  18 1.25 0  18.25 1.25 0  18.5 1.25 0  18.75 1.25 0  19 1.25 0  19.25 1.25 0  19.5 1.25 0  19.75 1.25 0  20 1.25 0  20.25 1.25 0  20.5 1.25 0  20.75 1.25 0  21 1.25 0  21.25 1.25 0  21.5 1.25 0  21.75 1.25 0  22 1.25 0  22.25 1.25 0  22.5 1.25 0  22.75 1.25 0  23 1.25 0  23.25 1.25 0  23.5 1.25 0  23.75 1.25 0  24 1.25 0  24.25 1.25 0  24.5 1.25 0  24.75 1.25 0  25 1.25 0  0 1.5 0  0.25 1.5 0  0.5 1.5 0  0.75 1.5 0  1 1.5 0  1.25 1.5 0  1.5 1.5 0  1.75 1.5 0  2 1.5 0  2.25 1.5 0  2.5 1.5 0  2.75 1.5 0  3 1.5 0  3.25 1.5 0  3.5 1.5 0  3.75 1.5 0  4 1.5 0  4.25 1.5 0  4.5 1.5 0  4.75 1.5 0  5 1.5 0  5.25 1.5 0  5.5 1.5 0  5.75 1.5 0  6 1.5 0  6.25 1.5 0  6.5 1.5 0  6.75 1.5 0  7 1.5 0  7.25 1.5 0  7.5 1.5 0  7.75 1.5 0  8 1.5 0  8.25 1.5 0  8.5 1.5 0  8.75 1.5 0  9 1.5 0  9.25 1.5 0  9.5 1.5 0  9.75 1.5 0  10 1.5 0  10.25 1.5 0  10.5 1.5 0  10.75 1.5 0  11 1.5 0  11.25 1.5 0  11.5 1.5 0  11.75 1.5 0  12 1.5 0  12.25 1.5 0  12.5 1.5 0  12.75 1.5 0  13 1.5 0  13.25 1.5 0  13.5 1.5 0  13.75 1.5 0  14 1.5 0  14.25 1.5 0  14.5 1.5 0  14.75 1.5 0  15 1.5 0  15.25 1.5 0  15.5 1.5 0  15.75 1.5 0  16 1.5 0  16.25 1.5 0  16.5 1.5 0  16.75 1.5 0  17 1.5 0  17.25 1.5 0  17.5 1.5 0  17.75 1.5 0  18 1.5 0  18.25 1.5 0  18.5 1.5 0  18.75 1.5 0  19 1.5 0  19.25 1.5 0  19.5 1.5 0  19.75 1.5 0  20 1.5 0  20.25 1.5 0  20.5 1.5 0  20.75 1.5 0  21 1.5 0  21.25 1.5 0  21.5 1.5 0  21.75 1.5 0  22 1.5 0  22.25 1.5 0  22.5 1.5 0  22.75 1.5 0  23 1.5 0  23.25 1.5 0  23.5 1.5 0  23.75 1.5 0  24 1.5 0  24.25 1.5 0  24.5 1.5 0  24.75 1.5 0  25 1.5 0  0 1.75 0  0.25 1.75 0  0.5 1.75 0  0.75 1.75 0  1 1.75 0  1.25 1.75 0  1.5 1.75 0  1.75 1.75 0  2 1.75 0  2.25 1.75 0  2.5 1.75 0  2.75 1.75 0  3 1.75 0  3.25 1.75 0  3.5 1.75 0  3.75 1.75 0  4 1.75 0  4.25 1.75 0  4.5 1.75 0  4.75 1.75 0  5 1.75 0  5.25 1.75 0  5.5 1.75 0  5.75 1.75 0  6 1.75 0  6.25 1.75 0  6.5 1.75 0  6.75 1.75 0  7 1.75 0  7.25 1.75 0  7.5 1.75 0  7.75 1.75 0  8 1.75 0  8.25 1.75 0  8.5 1.75 0  8.75 1.75 0  9 1.75 0  9.25 1.75 0  9.5 1.75 0  9.75 1.75 0  10 1.75 0  10.25 1.75 0  10.5 1.75 0  10.75 1.75 0  11 1.75 0  11.25 1.75 0  11.5 1.75 0  11.75 1.75 0  12 1.75 0  12.25 1.75 0  12.5 1.75 0  12.75 1.75 0  13 1.75 0  13.25 1.75 0  13.5 1.75 0  13.75 1.75 0  14 1.75 0  14.25 1.75 0  14.5 1.75 0  14.75 1.75 0  15 1.75 0  15.25 1.75 0  15.5 1.75 0  15.75 1.75 0  16 1.75 0  16.25 1.75 0  16.5 1.75 0  16.75 1.75 0  17 1.75 0  17.25 1.75 0  17.5 1.75 0  17.75 1.75 0  18 1.75 0  18.25 1.75 0  18.5 1.75 0  18.75 1.75 0  19 1.75 0  19.25 1.75 0  19.5 1.75 0  19.75 1.75 0  20 1.75 0  20.25 1.75 0  20.5 1.75 0  20.75 1.75 0  21 1.75 0  21.25 1.75 0  21.5 1.75 0  21.75 1.75 0  22 1.75 0  22.25 1.75 0  22.5 1.75 0  22.75 1.75 0  23 1.75 0  23.25 1.75 0  23.5 1.75 0  23.75 1.75 0  24 1.75 0  24.25 1.75 0  24.5 1.75 0  24.75 1.75 0  25 1.75 0  0 2 0  0.25 2 0  0.5 2 0  0.75 2 0  1 2 0  1.25 2 0  1.5 2 0  1.75 2 0  2 2 0  2.25 2 0  2.5 2 0  2.75 2 0  3 2 0  3.25 2 0  3.5 2 0  3.75 2 0  4 2 0  4.25 2 0  4.5 2 0  4.75 2 0  5 2 0  5.25 2 0  5.5 2 0  5.75 2 0  6 2 0  6.25 2 0  6.5 2 0  6.75 2 0  7 2 0  7.25 2 0  7.5 2 0  7.75 2 0  8 2 0  8.25 2 0  8.5 2 0  8.75 2 0  9 2 0  9.25 2 0  9.5 2 0  9.75 2 0  10 2 0  10.25 2 0  10.5 2 0  10.75 2 0  11 2 0  11.25 2 0 
[...]
<PointData  Scalars="f_26"> 
<DataArray  type="Float64"  Name="f_26"  format="ascii">2.2650462335289575e-05  2.2651833420007784e-05  2.2655066179324935e-05  2.2659990947185431e-05  2.2666299666655618e-05  2.2673697799420440e-05  2.2681984794824615e-05  2.2691074645538387e-05  2.2700964174751835e-05  2.2711663444402338e-05  2.2723109293105652e-05  2.2735092751719454e-05  2.2747237128515744e-05  2.2759050431865095e-05  2.2770040935732635e-05  2.2779848847966103e-05  2.2788339472227055e-05  2.2795632834840003e-05  2.2802085336485531e-05  2.2808252511266734e-05  2.2814839347467030e-05  2.2822617924074240e-05  2.2832300106462336e-05  2.2844395219616071e-05  2.2859116987515259e-05  2.2876391608871381e-05  2.2895962881083436e-05  2.2917532110354115e-05  2.2940852791383843e-05  2.2965734357831707e-05  2.2991969664505541e-05  2.3019245196950428e-05  2.3047095591663011e-05  2.3074929335937154e-05  2.3102107512156763e-05  2.3128032419200025e-05  2.3152208461286452e-05  2.3174260589215786e-05  2.3193917416565221e-05  2.3210979455399154e-05  2.3225296444134023e-05  2.3236769126163124e-05  2.3245373759134965e-05  2.3251195294747609e-05  2.3254456327800679e-05  2.3255535121936810e-05  2.3254963000951522e-05  2.3253382505530860e-05  2.3251453374084831e-05  2.3249723128124062e-05  2.3248511825825441e-05  2.3247863138604016e-05  2.3247578907873871e-05  2.3247309325913455e-05  2.3246648018425979e-05  2.3245191554298741e-05  2.3242556388693329e-05  2.3238379094186689e-05  2.3232331563823242e-05  2.3224158413795451e-05  2.3213718389401043e-05  2.3201012587248491e-05  2.3186200213019294e-05  2.3169608796078380e-05  2.3151734115686225e-05  2.3133215284759194e-05  2.3114777283789737e-05  2.3097147481043514e-05  2.3080958560941748e-05  2.3066650003246827e-05  2.3054385291221172e-05  2.3044010718550713e-05  2.3035078695616622e-05  2.3026935522578719e-05  2.3018844288412981e-05  2.3010102751770778e-05  2.3000133178364204e-05  2.2988548458988272e-05  2.2975209944331762e-05  2.2960277068460796e-05  2.2944222670205244e-05  2.2927781373579178e-05  2.2911826247942614e-05  2.2897207650829970e-05  2.2884600148596414e-05  2.2874385902925661e-05  2.2866587633947308e-05  2.2860864531375807e-05  2.2856578484132256e-05  2.2852916028123076e-05  2.2849037258455707e-05  2.2844229383529722e-05  2.2838047036164542e-05  2.2830408844347195e-05  2.2821613786434239e-05  2.2812266825932888e-05  2.2803145910787252e-05  2.2795063548257840e-05  2.2788761113160211e-05  2.2784847761610102e-05  2.2783807445874714e-05  2.2651472541092187e-05  2.2652614723828477e-05  2.2655777127092575e-05  2.2660674205596513e-05  2.2666973342377800e-05  2.2674371792111939e-05  2.2682661430306322e-05  2.2691746489066704e-05  2.2701612641326275e-05  2.2712260372379248e-05  2.2723622802924734e-05  2.2735496433336762e-05  2.2747519171543857e-05  2.2759218927249698e-05  2.2770123591670617e-05  2.2779888215025859e-05  2.2788386263598478e-05  2.2795739134179739e-05  2.2802298014912074e-05  2.2808607321290493e-05  2.2815357789672626e-05  2.2823309259879198e-05  2.2833167920494414e-05  2.2845443920536949e-05  2.2860352744479793e-05  2.2877815896470287e-05  2.2897562272657431e-05  2.2919271023793108e-05  2.2942674412742776e-05  2.2967570109688437e-05  2.2993752908520240e-05  2.3020923297716571e-05  2.3048636159527326e-05  2.3076319849012582e-05  2.3103350598128334e-05  2.3129140242845858e-05  2.3153198822449373e-05  2.3175155648603727e-05  2.3194744369867559e-05  2.3211771322829780e-05  2.3226091047739749e-05  2.3237605675154038e-05  2.3246288199163662e-05  2.3252216078829312e-05  2.3255601268710992e-05  2.3256808985427156e-05  2.3256355912182303e-05  2.3254870442447129e-05  2.3253002015883163e-05  2.3251294370151510e-05  2.3250070123246662e-05  2.3249378846479192e-05  2.3249027978066313e-05  2.3248671080289058e-05  2.3247903761671392e-05  2.3246326120134472e-05  2.3243562464123763e-05  2.3239261834594210e-05  2.3233110840132665e-05  2.3224867889352074e-05  2.3214401908308471e-05  2.3201718134142169e-05  2.3186971882837891e-05  2.3170478717137112e-05  2.3152717301144003e-05  2.3134309097520331e-05  2.3115964393409455e-05  2.3098399831221413e-05  2.3082241154369647e-05  2.3067925048080224e-05  2.3055617114314719e-05  2.3045170260816263e-05  2.3036145668259835e-05  2.3027897688227702e-05  2.3019695563998743e-05  2.3010842578776557e-05  2.3000768109311141e-05  2.2989094429024261e-05  2.2975692184429839e-05  2.2960725666861745e-05  2.2944665051149475e-05  2.2928235353031407e-05  2.2912296382559364e-05  2.2897685094077708e-05  2.2885065417199735e-05  2.2874814372448808e-05  2.2866956608642144e-05  2.2861159234915774e-05  2.2856795328955217e-05  2.2853064080989873e-05  2.2849138939361641e-05  2.2844319111096434e-05  2.2838166010810964e-05  2.2830596836794183e-05  2.2821901174666303e-05  2.2812669458992414e-05  2.2803662911500787e-05  2.2795676231918804e-05  2.2789429174392905e-05  2.2785488618805952e-05  2.2784190987675322e-05  2.2653754158997453e-05  2.2654822998993682e-05  2.2657909577789817e-05  2.2662743726067095e-05  2.2668997138972697e-05  2.2676367697235386e-05  2.2684639761522623e-05  2.2693699625095441e-05  2.2703506669801745e-05  2.2714033783039032e-05  2.2725196054054722e-05  2.2736792070065492e-05  2.2748486767764859e-05  2.2759856101706937e-05  2.2770485521892795e-05  2.2780082695241780e-05  2.2788556885357302e-05  2.2796042471102285e-05  2.2802880843123148e-05  2.2809588815558419e-05  2.2816820747413808e-05  2.2825302422276867e-05  2.2835716723378510e-05  2.2848561578642362e-05  2.2864042470592700e-05  2.2882060752764648e-05  2.2902308218017795e-05  2.2924414568645827e-05  2.2948064717851867e-05  2.2973027510838481e-05  2.2999097270873022e-05  2.3026001761691961e-05  2.3053341678321603e-05  2.3080596902474950e-05  2.3107189789295883e-05  2.3132567053474483e-05  2.3156262499142319e-05  2.3177922162829234e-05  2.3197293835379112e-05  2.3214196984676626e-05  2.3228496001933948e-05  2.3240095527093961e-05  2.3248960972816785e-05  2.3255152149028328e-05  2.3258855265320425e-05  2.3260404078712769e-05  2.3260280544906144e-05  2.3259078594752182e-05  2.3257418612845344e-05  2.3255825882428516e-05  2.3254617560723501e-05  2.3253848753256861e-05  2.3253338319865476e-05  2.3252752193232268e-05  2.3251697675260806e-05  2.3249788584224044e-05  2.3246669782255314e-05  2.3242020448604787e-05  2.3235564930532344e-05  2.3227100682871667e-05  2.3216528293371942e-05  2.3203868370903306e-05  2.3189269409517554e-05  2.3173018540392827e-05  2.3155552112355876e-05  2.3137446513205234e-05  2.3119372885749394e-05  2.3102017748310617e-05  2.3085985149486612e-05  2.3071698269248615e-05  2.3059318936978475e-05  2.3048707144990778e-05  2.3039440126675957e-05  2.3030892768801667e-05  2.3022355467945864e-05  2.3013152774262653e-05  2.3002737886665806e-05  2.2990761326282794e-05  2.2977123467184780e-05  2.2962010995992184e-05  2.2945899015308983e-05  2.2929495464300169e-05  2.2913625116840357e-05  2.2899081850415570e-05  2.2886489855122740e-05  2.2876199528915579e-05  2.2868227754997843e-05  2.2862252696296673e-05  2.2857672832262834e-05  2.2853722074919706e-05  2.2849613986485980e-05  2.2844687910435209e-05  2.2838536472796529e-05  2.2831089348937054e-05  2.2822624551502894e-05  2.2813698884341702e-05  2.2805025573685838e-05  2.2797346312570609e-05  2.2791330410704489e-05  2.2787502629243087e-05  2.2786184359438806e-05  2.2657390073985631e-05  2.2658408174557110e-05  2.2661398154176077e-05  2.2666119831740874e-05  2.2672268238642665e-05  2.2679555447953177e-05  2.2687764779187321e-05  2.2696762634254532e-05  2.2706472235332970e-05  2.2716824334349578e-05  2.2727702415664314e-05  2.2738901204346485e-05  2.2750119613226422e-05  2.2761002652722332e-05  2.2771224095877068e-05  2.2780576238864485e-05  2.2789028436198862e-05  2.2796739102168736e-05  2.2804037012464525e-05  2.2811397629267717e-05  2.2819418541678098e-05  2.2828768723361996e-05  2.2840086474113804e-05  2.2853840419132127e-05  2.2870213541526624e-05  2.2889076767693863e-05  2.2910073187798713e-05  2.2932768258928683e-05  2.2956783362351676e-05  2.2981845963759912e-05  2.3007746411694637e-05  2.3034248088812097e-05  2.3061016614726639e-05  2.3087609010548847e-05  2.3113520171269191e-05  2.3138253929703637e-05  2.3161383361455215e-05  2.3182580247328660e-05  2.3201611080431896e-05  2.3218310756894298e-05  2.3232554694952772e-05  2.3244250002225871e-05  2.3253352597905059e-05  2.3259900271277491e-05  2.3264046172906142e-05  2.3266081849021817e-05  2.3266440140657499e-05  2.3265663410660626e-05  2.3264325797935985e-05  2.3262920649083453e-05  2.3261753153832248e-05  2.3260885330237782e-05  2.3260154606740175e-05  2.3259248324413091e-05  2.3257793275706707e-05  2.3255423128248551e-05  2.3251810008527718e-05  2.3246673397753921e-05  2.3239789920211438e-05  2.3231012810226484e-05  2.3220288849864625e-05  2.3207661754822001e-05  2.3193271365912407e-05  2.3177365319445717e-05  2.3160320583797825e-05  2.3142649841049213e-05  2.3124968448893461e-05  2.3107919486551573e-05  2.3092074641833088e-05  2.3077834580329863e-05  2.3065350428761384e-05  2.3054486384194771e-05  2.3044838873119825e-05  2.3035812779119662e-05  2.3026733907317771e-05  2.3016965064109411e-05  2.3006001601125201e-05  2.2993541151858491e-05  2.2979531719983088e-05  2.2964195855021060e-05  2.2948017675169160e-05  2.2931679187419536e-05  2.2915949111545087e-05  2.2901550330782494e-05  2.2889039540340654e-05  2.2878719054368518e-05  2.2870587002842970e-05  2.2864334078345537e-05  2.2859397487357688e-05  2.2855068013986835e-05  2.2850626189327604e-05  2.2845478801413267e-05  2.2839272664589762e-05  2.2831963196513900e-05  2.2823816287311123e-05  2.2815340357901257e-05  2.2807175678254472e-05  2.2799982611651110e-05  2.2794356029669236e-05  2.2790766083025572e-05  2.2789513498282264e-05  2.2662326999469224e-05  2.2663285018372717e-05  2.2666136751937200e-05  2.2670675336065581e-05  2.2676632044088587e-05  2.2683747814055007e-05  2.2691816835783695e-05  2.2700691461936943e-05  2.2710257077266048e-05  2.2720394274038493e-05  2.2730944297891245e-05  2.2741690236335435e-05  2.2752365436203645e-05  2.2762695305861596e-05  2.2772462158242392e-05  2.2781565765060622e-05  2.2790053602368946e-05  2.2798116383176501e-05  2.2806067827206730e-05  2.2814330672111965e-05  2.2823427849294687e-05  2.2833949476199771e-05  2.2846466151314141e-05  2.2861397280630340e-05  2.2878890577103755e-05  2.2898781940592283e-05  2.2920666391547854e-05  2.2944046015360527e-05  2.2968476337585682e-05  2.2993638521038054e-05  2.3019315433906755e-05  2.3045308406595455e-05  2.3071358144673728e-05  2.3097115491033633e-05  2.3122167276062969e-05  2.3146091918266040e-05  2.3168513649090491e-05  2.3189134880644093e-05  2.3207739744400752e-05  2.3224174272747180e-05  2.3238320398383216e-05  2.3250085035761530e-05  2.3259414529494954e-05  2.3266326634824532e-05  2.3270943755332312e-05  2.3273515138695805e-05  2.3274419479768739e-05  2.3274137076937205e-05  2.3273182518199650e-05  2.3272005962540215e-05  2.3270895750730814e-05  2.3269923550494731e-05  2.3268953260616156e-05  2.3267702087793342e-05  2.3265821405171340e-05  2.3262965554131622e-05  2.3258832795441000e-05  2.3253183228470783e-05  2.3245849284606320e-05  2.3236745791418787e-05  2.3225871341538170e-05  2.3213295897949361e-05  2.3199150125879738e-05  2.3183638053731037e-05  2.3167070763260083e-05  2.3149890062734444e-05  2.3132649092640407e-05  2.3115942156139951e-05  2.3100303488787851e-05  2.3086105145620125e-05  2.3073480322623415e-05  2.3062291005853272e-05  2.3052150509902388e-05  2.3042498192937551e-05  2.3032706958829923e-05  2.3022194902404502e-05  2.3010518787512893e-05  2.2997441582970673e-05  2.2982973272650727e-05  2.2967380279034782e-05  2.2951155167862718e-05  2.2934943631459390e-05  2.2919439295519082e-05  2.2905270178615007e-05  2.2892901783101091e-05  2.2882569311228286e-05  2.2874241325729729e-05  2.2867620961990306e-05  2.2862195347870755e-05  2.2857332279496827e-05  2.2852403775670055e-05  2.2846907994075982e-05  2.2840564966385755e-05  2.2833366506569244e-05  2.2825566673415822e-05  2.2817615945682915e-05  2.2810065187391780e-05  2.2803474186218938e-05  2.2798344981293994e-05  2.2795077222252960e-05  2.2793933564076718e-05  2.2668392962196586e-05  2.2669276675885892e-05  2.2671942469395634e-05  2.2676219322659902e-05  2.2681883752307651e-05  2.2688718734910004e-05  2.2696543960563534e-05  2.2705210587061749e-05  2.2714574152849267e-05  2.2724466501336761e-05  2.2734682119829455e-05  2.2744985259868403e-05  2.2755138605177172e-05  2.2764948886205826e-05  2.2774314623792506e-05  2.2783254356128606e-05  2.2791903319527295e-05  2.2800488163767559e-05  2.2809303768896713e-05  2.2818709814590556e-05  2.2829139006792362e-05  2.2841082950962987e-05  2.2855022986304775e-05  2.2871310329322689e-05  2.2890046773195390e-05  2.2911034368568234e-05  2.2933831363491313e-05  2.2957891384176230e-05  2.2982715201806467e-05  2.3007941160737810e-05  2.3033342155363098e-05  2.3058754091992109e-05  2.3083993375774968e-05  2.3108811309507121e-05  2.3132897989222002e-05  2.3155918613624933e-05  2.3177557007784330e-05  2.3197547580281284e-05  2.3215686013931605e-05  2.3231818755687514e-05  2.3245823549451940e-05  2.3257600736677069e-05  2.3267087354293378e-05  2.3274287878951852e-05  2.3279304715703762e-05  2.3282355344926612e-05  2.3283770250226926e-05  2.3283966683319855e-05  2.3283393154112704e-05  2.3282449106482226e-05  2.3281402380964302e-05  2.3280336628195744e-05  2.3279148764856572e-05  2.3277592264490033e-05  2.3275345061172920e-05  2.3272078052117805e-05  2.3267507109914075e-05  2.3261423559100075e-05  2.3253708177021561e-05  2.3244332624263798e-05  2.3233344883875001e-05  2.3220840984615417e-05  2.3206944573651424e-05  2.3191819986214815e-05  2.3175716803340934e-05  2.3159009656114734e-05  2.3142192012366666e-05  2.3125810764427511e-05  2.3110362484334467e-05  2.3096187745167334e-05  2.3083395512640572e-05  2.3071837031100576e-05  2.3061135385831393e-05  2.3050763148888075e-05  2.3040147445028273e-05  2.3028776096625371e-05  2.3016284844948421e-05  2.3002517435079034e-05  2.2987555239089917e-05  2.2971710598895136e-05  2.2955479814733775e-05  2.2939461975481062e-05  2.2924261151271458e-05  2.2910393892589443e-05  2.2898218313939121e-05  2.2887889215806670e-05  2.2879337573803762e-05  2.2872278464540506e-05  2.2866257053618325e-05  2.2860733355972711e-05  2.2855189043408617e-05  2.2849230094386884e-05  2.2842661393049468e-05  2.2835516798790310e-05  2.2828038456248245e-05  2.2820614486316233e-05  2.2813699569208098e-05  2.2807745278318775e-05  2.2803152689685604e-05  2.2800241751899432e-05  2.2799225965111758e-05  2.2675297108351497e-05  2.2676097622546183e-05  2.2678539530736164e-05  2.2682488217457226e-05  2.2687769586384397e-05  2.2694217153484908e-05  2.2701689149385000e-05  2.2710051747633479e-05  2.2719146744793031e-05  2.2728769085426048e-05  2.2738671049552488e-05  2.2748595093567499e-05  2.2758325616487212e-05  2.2767742641682393e-05  2.2776855740894019e-05  2.2785800584557652e-05  2.2794799941152058e-05  2.2804114356649320e-05  2.2814013980641049e-05  2.2824785548626524e-05  2.2836758358659072e-05  2.2850309798475786e-05  2.2865815301243420e-05  2.2883543971051205e-05  2.2903545888756220e-05  2.2925595806083630e-05  2.2949233541802664e-05  2.2973888135337357e-05  2.2999025964064918e-05  2.3024252624115036e-05  2.3049329923636722e-05  2.3074120715337499e-05  2.3098509635928654e-05  2.3122346035650668e-05  2.3145427058355231e-05  2.3167512005349698e-05  2.3188350106275082e-05  2.3207707147440010e-05  2.3225381286905253e-05  2.3241204120251595e-05  2.3255033334978041e-05  2.3266752318000252e-05  2.3276287732339567e-05  2.3283639471600933e-05  2.3288905823158135e-05  2.3292290953059683e-05  2.3294092986112389e-05  2.3294675557882910e-05  2.3294423304040052e-05  2.3293682498262860e-05  2.3292697616180687e-05  2.3291564088764856e-05  2.3290214342837915e-05  2.3288440568770669e-05  2.3285945964008902e-05  2.3282410485093451e-05  2.3277554212502738e-05  2.3271183203202738e-05  2.3263210588854525e-05  2.3253652127134529e-05  2.3242597599239935e-05  2.3230168281348637e-05  2.3216487447707702e-05  2.3201692123499565e-05  2.3185984537530853e-05  2.3169684106024770e-05  2.3153232610540350e-05  2.3137134003458241e-05  2.3121849131408820e-05  2.3107686339902776e-05  2.3094725840259621e-05  2.3082799770585709e-05  2.3071531436537416e-05  2.3060420567198735e-05  2.3048949743858821e-05  2.3036685169314153e-05  2.3023353669189573e-05  2.3008889529354923e-05  2.2993448765513013e-05  2.2977386132502370e-05  2.2961194305171019e-05  2.2945417735169550e-05  2.2930563700032625e-05  2.2917030949477164e-05  2.2905064695601329e-05  2.2894734884196988e-05  2.2885932261739074e-05  2.2878384311652489e-05  2.2871698800647706e-05  2.2865435841231221e-05  2.2859195078899770e-05  2.2852695900693337e-05  2.2845829762288060e-05  2.2838671666500590e-05  2.2831450445181120e-05  2.2824491772424388e-05  2.2818156369067848e-05  2.2812791836074186e-05  2.2808702739683481e-05  2.2806131464980972e-05  2.2805240664713363e-05  2.2682664333857227e-05  2.2683381704087801e-05  2.2685582283816857e-05  2.2689165674646313e-05  2.2694005857478063e-05  2.2699988596983624e-05  2.2707018027407229e-05  2.2714989688905288e-05  2.2723751266765329e-05  2.2733080908675102e-05  2.2742703290591437e-05  2.2752343854096670e-05  2.2761802956809191e-05  2.2771020513024713e-05  2.2780100920721079e-05  2.2789282387624336e-05  2.2798864285408593e-05  2.2809132900897872e-05  2.2820326088304727e-05  2.2832649215964280e-05  2.2846318679059949e-05  2.2861587616166853e-05  2.2878716203324728e-05  2.2897885175988803e-05  2.2919093413993160e-05  2.2942098978330863e-05  2.2966444117830263e-05  2.2991559651956543e-05  2.3016901168204195e-05  2.3042054698228884e-05  2.3066770955193626e-05  2.3090929921036039e-05  2.3114471847769931e-05  2.3137335229367491e-05  2.3159422072818576e-05  2.3180588952595296e-05  2.3200654330203127e-05  2.3219414287761217e-05  2.3236660118837521e-05  2.3252192045262648e-05  2.3265829321043691e-05  2.3277424990003636e-05  2.3286891852143166e-05  2.3294232872185739e-05  2.3299559045772740e-05  2.3303083275035190e-05  2.3305093762759121e-05  2.3305918725103624e-05  2.3305889774808165e-05  2.3305303113279147e-05  2.3304377567928947e-05  2.3303216201278872e-05  2.3301783309801553e-05  2.3299906684546214e-05  2.3297310125036986e-05  2.3293673668544118e-05  2.3288706823500325e-05  2.3282211035106231e-05  2.3274111536628797e-05  2.3264451494284660e-05  2.3253353343922412e-05  2.3240964855452477e-05  2.3227421175383157e-05  2.3212852206017449e-05  2.3197434667533380e-05  2.3181449962602714e-05  2.3165297918650757e-05  2.3149443110268457e-05  2.3134311044603464e-05  2.3120176740561892e-05  2.3107088527274762e-05  2.3094853128814517e-05  2.3083085202952111e-05  2.3071303232697666e-05  2.3059040819167501e-05  2.3045943223125161e-05  2.3031831751526554e-05  2.3016732892928028e-05  2.3000873938620660e-05  2.2984644205090746e-05  2.2968524494712379e-05  2.2953000328306930e-05  2.2938483379600269e-05  2.2925259818625678e-05  2.2913468660187978e-05  2.2903101038700417e-05  2.2894011644820116e-05  2.2885942589265397e-05  2.2878565100137447e-05  2.2871538944295582e-05  2.2864578948026113e-05  2.2857511831865819e-05  2.2850307375756907e-05  2.2843074604329599e-05  2.2836026378781541e-05  2.2829429296685343e-05  2.2823559325445085e-05  2.2818673697471562e-05  2.2814995777436147e-05  2.2812703635676506e-05  2.2811916744246886e-05  2.2690111729046812e-05  2.2690754519491189e-05  2.2692721214770877e-05  2.2695940839275206e-05  2.2700329153460330e-05  2.2705818752814255e-05  2.2712359080294899e-05  2.2719883022612516e-05  2.2728261629630565e-05  2.2737279801502306e-05  2.2746657256754080e-05  2.2756116407792677e-05  2.2765473737220279e-05  2.2774715126350843e-05  2.2784016426629568e-05  2.2793692888749835e-05  2.2804099314652907e-05  2.2815533519120654e-05  2.2828192608190199e-05  2.2842195315918979e-05  2.2857641329902072e-05  2.2874656870602055e