<?xml version="1.0"?>
<VTKFile type="UnstructuredGrid"  version="0.1"  >
<UnstructuredGrid>
<Piece  NumberOfPoints="10201" NumberOfCells="20000">
<Points>
<DataArray  type="Float64"  NumberOfComponents="3"  format="ascii">0 0 0  0.25 0 0  0.5 0 0  0.75 0 0  1 0 0  1.25 0 0  1.5 0 0  1.75 0 0  2 0 0  2.25 0 0  2.5 0 0  2.75 0 0  3 0 0  3.25 0 0  3.5 0 0  3.75 0 0  4 0 0  4.25 0 0  4.5 0 0  4.75 0 0  5 0 0  5.25 0 0  5.5 0 0  5.75 0 0  6 0 0  6.25 0 0  6.5 0 0  6.75 0 0  7 0 0  7.25 0 0  7.5 0 0  7.75 0 0  8 0 0  8.25 0 0  8.5 0 0  8.75 0 0  9 0 0  9.25 0 0  9.5 0 0  9.75 0 0  10 0 0  10.25 0 0  10.5 0 0  10.75 0 0  11 0 0  11.25 0 0  11.5 0 0  11.75 0 0  12 0 0  12.25 0 0  12.5 0 0  12.75 0 0  13 0 0  13.25 0 0  13.5 0 0  13.75 0 0  14 0 0  14.25 0 0  14.5 0 0  14.75 0 0  15 0 0  15.25 0 0  15.5 0 0  15.75 0 0  16 0 0  16.25 0 0  16.5 0 0  16.75 0 0  17 0 0  17.25 0 0  17.5 0 0  17.75 0 0  18 0 0  18.25 0 0  18.5 0 0  18.75 0 0  19 0 0  19.25 0 0  19.5 0 0  19.75 0 0  20 0 0  20.25 0 0  20.5 0 0  20.75 0 0  21 0 0  21.25 0 0  21.5 0 0  21.75 0 0  22 0 0  22.25 0 0  22.5 0 0  22.75 0 0  23 0 0  23.25 0 0  23.5 0 0  23.75 0 0  24 0 0  24.25 0 0  24.5 0 0  24.75 0 0  25 0 0  0 0.25 0  0.25 0.25 0  0.5 0.25 0  0.75 0.25 0  1 0.25 0  1.25 0.25 0  1.5 0.25 0  1.75 0.25 0  2 0.25 0  2.25 0.25 0  2.5 0.25 0  2.75 0.25 0  3 0.25 0  3.25 0.25 0  3.5 0.25 0  3.75 0.25 0  4 0.25 0  4.25 0.25 0  4.5 0.25 0  4.75 0.25 0  5 0.25 0  5.25 0.25 0  5.5 0.25 0  5.75 0.25 0  6 0.25 0  6.25 0.25 0  6.5 0.25 0  6.75 0.25 0  7 0.25 0  7.25 0.25 0  7.5 0.25 0  7.75 0.25 0  8 0.25 0  8.25 0.25 0  8.5 0.25 0  8.75 0.25 0  9 0.25 0  9.25 0.25 0  9.5 0.25 0  9.75 0.25 0  10 0.25 0  10.25 0.25 0  10.5 0.25 0  10.75 0.25 0  11 0.25 0  11.25 0.25 0  11.5 0.25 0  11.75 0.25 0  12 0.25 0  12.25 0.25 0  12.5 0.25 0  12.75 0.25 0  13 0.25 0  13.25 0.25 0  13.5 0.25 0  13.75 0.25 0  14 0.25 0  14.25 0.25 0  14.5 0.25 0  14.75 0.25 0  15 0.25 0  15.25 0.25 0  15.5 0.25 0  15.75 0.25 0  16 0.25 0  16.25 0.25 0  16.5 0.25 0  16.75 0.25 0  17 0.25 0  17.25 0.25 0  17.5 0.25 0  17.75 0.25 0  18 0.25 0  18.25 0.25 0  18.5 0.25 0  18.75 0.25 0  19 0.25 0  19.25 0.25 0  19.5 0.25 0  19.75 0.25 0  20 0.25 0  20.25 0.25 0  20.5 0.25 0  20.75 0.25 0  21 0.25 0  21.25 0.25 0  21.5 0.25 0  21.75 0.25 0  22 0.25 0  22.25 0.25 0  22.5 0.25 0  22.75 0.25 0  23 0.25 0  23.25 0.25 0  23.5 0.25 0  23.75 0.25 0  24 0.25 0  24.25 0.25 0  24.5 0.25 0  24.75 0.25 0  25 0.25 0  0 0.5 0  0.25 0.5 0  0.5 0.5 0  0.75 0.5 0  1 0.5 0  1.25 0.5 0  1.5 0.5 0  1.75 0.5 0  2 0.5 0  2.25 0.5 0  2.5 0.5 0  2.75 0.5 0  3 0.5 0  3.25 0.5 0  3.5 0.5 0  3.75 0.5 0  4 0.5 0  4.25 0.5 0  4.5 0.5 0  4.75 0.5 0  5 0.5 0  5.25 0.5 0  5.5 0.5 0  5.75 0.5 0  6 0.5 0  6.25 0.5 0  6.5 0.5 0  6.75 0.5 0  7 0.5 0  7.25 0.5 0  7.5 0.5 0  7.75 0.5 0  8 0.5 0  8.25 0.5 0  8.5 0.5 0  8.75 0.5 0  9 0.5 0  9.25 0.5 0  9.5 0.5 0  9.75 0.5 0  10 0.5 0  10.25 0.5 0  10.5 0.5 0  10.75 0.5 0  11 0.5 0  11.25 0.5 0  11.5 0.5 0  11.75 0.5 0  12 0.5 0  12.25 0.5 0  12.5 0.5 0  12.75 0.5 0  13 0.5 0  13.25 0.5 0  13.5 0.5 0  13.75 0.5 0  14 0.5 0  14.25 0.5 0  14.5 0.5 0  14.75 0.5 0  15 0.5 0  15.25 0.5 0  15.5 0.5 0  15.75 0.5 0  16 0.5 0  16.25 0.5 0  16.5 0.5 0  16.75 0.5 0  17 0.5 0  17.25 0.5 0  17.5 0.5 0  17.75 0.5 0  18 0.5 0  18.25 0.5 0  18.5 0.5 0  18.75 0.5 0  19 0.5 0  19.25 0.5 0  19.5 0.5 0  19.75 0.5 0  20 0.5 0  20.25 0.5 0  20.5 0.5 0  20.75 0.5 0  21 0.5 0  21.25 0.5 0  21.5 0.5 0  21.75 0.5 0  22 0.5 0  22.25 0.5 0  22.5 0.5 0  22.75 0.5 0  23 0.5 0  23.25 0.5 0  23.5 0.5 0  23.75 0.5 0  24 0.5 0  24.25 0.5 0  24.5 0.5 0  24.75 0.5 0  25 0.5 0  0 0.75 0  0.25 0.75 0  0.5 0.75 0  0.75 0.75 0  1 0.75 0  1.25 0.75 0  1.5 0.75 0  1.75 0.75 0  2 0.75 0  2.25 0.75 0  2.5 0.75 0  2.75 0.75 0  3 0.75 0  3.25 0.75 0  3.5 0.75 0  3.75 0.75 0  4 0.75 0  4.25 0.75 0  4.5 0.75 0  4.75 0.75 0  5 0.75 0  5.25 0.75 0  5.5 0.75 0  5.75 0.75 0  6 0.75 0  6.25 0.75 0  6.5 0.75 0  6.75 0.75 0  7 0.75 0  7.25 0.75 0  7.5 0.75 0  7.75 0.75 0  8 0.75 0  8.25 0.75 0  8.5 0.75 0  8.75 0.75 0  9 0.75 0  9.25 0.75 0  9.5 0.75 0  9.75 0.75 0  10 0.75 0  10.25 0.75 0  10.5 0.75 0  10.75 0.75 0  11 0.75 0  11.25 0.75 0  11.5 0.75 0  11.75 0.75 0  12 0.75 0  12.25 0.75 0  12.5 0.75 0  12.75 0.75 0  13 0.75 0  13.25 0.75 0  13.5 0.75 0  13.75 0.75 0  14 0.75 0  14.25 0.75 0  14.5 0.75 0  14.75 0.75 0  15 0.75 0  15.25 0.75 0  15.5 0.75 0  15.75 0.75 0  16 0.75 0  16.25 0.75 0  16.5 0.75 0  16.75 0.75 0  17 0.75 0  17.25 0.75 0  17.5 0.75 0  17.75 0.75 0  18 0.75 0  18.25 0.75 0  18.5 0.75 0  18.75 0.75 0  19 0.75 0  19.25 0.75 0  19.5 0.75 0  19.75 0.75 0  20 0.75 0  20.25 0.75 0  20.5 0.75 0  20.75 0.75 0  21 0.75 0  21.25 0.75 0  21.5 0.75 0  21.75 0.75 0  22 0.75 0  22.25 0.75 0  22.5 0.75 0  22.75 0.75 0  23 0.75 0  23.25 0.75 0  23.5 0.75 0  23.75 0.75 0  24 0.75 0  24.25 0.75 0  24.5 0.75 0  24.75 0.75 0  25 0.75 0  0 1 0  0.25 1 0  0.5 1 0  0.75 1 0  1 1 0  1.25 1 0  1.5 1 0  1.75 1 0  2 1 0  2.25 1 0  2.5 1 0  2.75 1 0  3 1 0  3.25 1 0  3.5 1 0  3.75 1 0  4 1 0  4.25 1 0  4.5 1 0  4.75 1 0  5 1 0  5.25 1 0  5.5 1 0  5.75 1 0  6 1 0  6.25 1 0  6.5 1 0  6.75 1 0  7 1 0  7.25 1 0  7.5 1 0  7.75 1 0  8 1 0  8.25 1 0  8.5 1 0  8.75 1 0  9 1 0  9.25 1 0  9.5 1 0  9.75 1 0  10 1 0  10.25 1 0  10.5 1 0  10.75 1 0  11 1 0  11.25 1 0  11.5 1 0  11.75 1 0  12 1 0  12.25 1 0  12.5 1 0  12.75 1 0  13 1 0  13.25 1 0  13.5 1 0  13.75 1 0  14 1 0  14.25 1 0  14.5 1 0  14.75 1 0  15 1 0  15.25 1 0  15.5 1 0  15.75 1 0  16 1 0  16.25 1 0  16.5 1 0  16.75 1 0  17 1 0  17.25 1 0  17.5 1 0  17.75 1 0  18 1 0  18.25 1 0  18.5 1 0  18.75 1 0  19 1 0  19.25 1 0  19.5 1 0  19.75 1 0  20 1 0  20.25 1 0  20.5 1 0  20.75 1 0  21 1 0  21.25 1 0  21.5 1 0  21.75 1 0  22 1 0  22.25 1 0  22.5 1 0  22.75 1 0  23 1 0  23.25 1 0  23.5 1 0  23.75 1 0  24 1 0  24.25 1 0  24.5 1 0  24.75 1 0  25 1 0  0 1.25 0  0.25 1.25 0  0.5 1.25 0  0.75 1.25 0  1 1.25 0  1.25 1.25 0  1.5 1.25 0  1.75 1.25 0  2 1.25 0  2.25 1.25 0  2.5 1.25 0  2.75 1.25 0  3 1.25 0  3.25 1.25 0  3.5 1.25 0  3.75 1.25 0  4 1.25 0  4.25 1.25 0  4.5 1.25 0  4.75 1.25 0  5 1.25 0  5.25 1.25 0  5.5 1.25 0  5.75 1.25 0  6 1.25 0  6.25 1.25 0  6.5 1.25 0  6.75 1.25 0  7 1.25 0  7.25 1.25 0  7.5 1.25 0  7.75 1.25 0  8 1.25 0  8.25 1.25 0  8.5 1.25 0  8.75 1.25 0  9 1.25 0  9.25 1.25 0  9.5 1.25 0  9.75 1.25 0  10 1.25 0  10.25 1.25 0  10.5 1.25 0  10.75 1.25 0  11 1.25 0  11.25 1.25 0  11.5 1.25 0  11.75 1.25 0  12 1.25 0  12.25 1.25 0  12.5 1.25 0  12.75 1.25 0  13 1.25 0  13.25 1.25 0  13.5 1.25 0  13.75 1.25 0  14 1.25 0  14.25 1.25 0  14.5 1.25 0  14.75 1.25 0  15 1.25 0  15.25 1.25 0  15.5 1.25 0  15.75 1.25 0  16 1.25 0  16.25 1.25 0  16.5 1.25 0  16.75 1.25 0  17 1.25 0  17.25 1.25 0  17.5 1.25 0  17.75 1.25 0  18 1.25 0  18.25 1.25 0  18.5 1.25 0  18.75 1.25 0  19 1.25 0  19.25 1.25 0  19.5 1.25 0  19.75 1.25 0  20 1.25 0  20.25 1.25 0  20.5 1.25 0  20.75 1.25 0  21 1.25 0  21.25 1.25 0  21.5 1.25 0  21.75 1.25 0  22 1.25 0  22.25 1.25 0  22.5 1.25 0  22.75 1.25 0  23 1.25 0  23.25 1.25 0  23.5 1.25 0  23.75 1.25 0  24 1.25 0  24.25 1.25 0  24.5 1.25 0  24.75 1.25 0  25 1.25 0  0 1.5 0  0.25 1.5 0  0.5 1.5 0  0.75 1.5 0  1 1.5 0  1.25 1.5 0  1.5 1.5 0  1.75 1.5 0  2 1.5 0  2.25 1.5 0  2.5 1.5 0  2.75 1.5 0  3 1.5 0  3.25 1.5 0  3.5 1.5 0  3.75 1.5 0  4 1.5 0  4.25 1.5 0  4.5 1.5 0  4.75 1.5 0  5 1.5 0  5.25 1.5 0  5.5 1.5 0  5.75 1.5 0  6 1.5 0  6.25 1.5 0  6.5 1.5 0  6.75 1.5 0  7 1.5 0  7.25 1.5 0  7.5 1.5 0  7.75 1.5 0  8 1.5 0  8.25 1.5 0  8.5 1.5 0  8.75 1.5 0  9 1.5 0  9.25 1.5 0  9.5 1.5 0  9.75 1.5 0  10 1.5 0  10.25 1.5 0  10.5 1.5 0  10.75 1.5 0  11 1.5 0  11.25 1.5 0  11.5 1.5 0  11.75 1.5 0  12 1.5 0  12.25 1.5 0  12.5 1.5 0  12.75 1.5 0  13 1.5 0  13.25 1.5 0  13.5 1.5 0  13.75 1.5 0  14 1.5 0  14.25 1.5 0  14.5 1.5 0  14.75 1.5 0  15 1.5 0  15.25 1.5 0  15.5 1.5 0  15.75 1.5 0  16 1.5 0  16.25 1.5 0  16.5 1.5 0  16.75 1.5 0  17 1.5 0  17.25 1.5 0  17.5 1.5 0  17.75 1.5 0  18 1.5 0  18.25 1.5 0  18.5 1.5 0  18.75 1.5 0  19 1.5 0  19.25 1.5 0  19.5 1.5 0  19.75 1.5 0  20 1.5 0  20.25 1.5 0  20.5 1.5 0  20.75 1.5 0  21 1.5 0  21.25 1.5 0  21.5 1.5 0  21.75 1.5 0  22 1.5 0  22.25 1.5 0  22.5 1.5 0  22.75 1.5 0  23 1.5 0  23.25 1.5 0  23.5 1.5 0  23.75 1.5 0  24 1.5 0  24.25 1.5 0  24.5 1.5 0  24.75 1.5 0  25 1.5 0  0 1.75 0  0.25 1.75 0  0.5 1.75 0  0.75 1.75 0  1 1.75 0  1.25 1.75 0  1.5 1.75 0  1.75 1.75 0  2 1.75 0  2.25 1.75 0  2.5 1.75 0  2.75 1.75 0  3 1.75 0  3.25 1.75 0  3.5 1.75 0  3.75 1.75 0  4 1.75 0  4.25 1.75 0  4.5 1.75 0  4.75 1.75 0  5 1.75 0  5.25 1.75 0  5.5 1.75 0  5.75 1.75 0  6 1.75 0  6.25 1.75 0  6.5 1.75 0  6.75 1.75 0  7 1.75 0  7.25 1.75 0  7.5 1.75 0  7.75 1.75 0  8 1.75 0  8.25 1.75 0  8.5 1.75 0  8.75 1.75 0  9 1.75 0  9.25 1.75 0  9.5 1.75 0  9.75 1.75 0  10 1.75 0  10.25 1.75 0  10.5 1.75 0  10.75 1.75 0  11 1.75 0  11.25 1.75 0  11.5 1.75 0  11.75 1.75 0  12 1.75 0  12.25 1.75 0  12.5 1.75 0  12.75 1.75 0  13 1.75 0  13.25 1.75 0  13.5 1.75 0  13.75 1.75 0  14 1.75 0  14.25 1.75 0  14.5 1.75 0  14.75 1.75 0  15 1.75 0  15.25 1.75 0  15.5 1.75 0  15.75 1.75 0  16 1.75 0  16.25 1.75 0  16.5 1.75 0  16.75 1.75 0  17 1.75 0  17.25 1.75 0  17.5 1.75 0  17.75 1.75 0  18 1.75 0  18.25 1.75 0  18.5 1.75 0  18.75 1.75 0  19 1.75 0  19.25 1.75 0  19.5 1.75 0  19.75 1.75 0  20 1.75 0  20.25 1.75 0  20.5 1.75 0  20.75 1.75 0  21 1.75 0  21.25 1.75 0  21.5 1.75 0  21.75 1.75 0  22 1.75 0  22.25 1.75 0  22.5 1.75 0  22.75 1.75 0  23 1.75 0  23.25 1.75 0  23.5 1.75 0  23.75 1.75 0  24 1.75 0  24.25 1.75 0  24.5 1.75 0  24.75 1.75 0  25 1.75 0  0 2 0  0.25 2 0  0.5 2 0  0.75 2 0  1 2 0  1.25 2 0  1.5 2 0  1.75 2 0  2 2 0  2.25 2 0  2.5 2 0  2.75 2 0  3 2 0  3.25 2 0  3.5 2 0  3.75 2 0  4 2 0  4.25 2 0  4.5 2 0  4.75 2 0  5 2 0  5.25 2 0  5.5 2 0  5.75 2 0  6 2 0  6.25 2 0  6.5 2 0  6.75 2 0  7 2 0  7.25 2 0  7.5 2 0  7.75 2 0  8 2 0  8.25 2 0  8.5 2 0  8.75 2 0  9 2 0  9.25 2 0  9.5 2 0  9.75 2 0  10 2 0  10.25 2 0  10.5 2 0  10.75 2 0  11 2 0  11.25 2 0 
[...]
<PointData  Scalars="f_26"> 
<DataArray  type="Float64"  Name="f_26"  format="ascii">2.3162822488152123e-05  2.3163499974105101e-05  2.3165116447915295e-05  2.3167586854968975e-05  2.3170743085197880e-05  2.3174395924286739e-05  2.3178369329550708e-05  2.3182512417729212e-05  2.3186690635152557e-05  2.3190762506159809e-05  2.3194553225582873e-05  2.3197838351863823e-05  2.3200348484897431e-05  2.3201798787071522e-05  2.3201937673019376e-05  2.3200601384289099e-05  2.3197759478611357e-05  2.3193540772269059e-05  2.3188236067438257e-05  2.3182278452174610e-05  2.3176203062851290e-05  2.3170589177492242e-05  2.3165991795976420e-05  2.3162876466122094e-05  2.3161574498607992e-05  2.3162270725147445e-05  2.3165023122565975e-05  2.3169799814674344e-05  2.3176512671213150e-05  2.3185031890395095e-05  2.3195179152691320e-05  2.3206709919358730e-05  2.3219300843496334e-05  2.3232554091237360e-05  2.3246020520400186e-05  2.3259234540727831e-05  2.3271749707438394e-05  2.3283166336938879e-05  2.3293148180497693e-05  2.3301430951113763e-05  2.3307828499470640e-05  2.3312241601971630e-05  2.3314670618043912e-05  2.3315228954003207e-05  2.3314151260888754e-05  2.3311789215467004e-05  2.3308588640853625e-05  2.3305045204542605e-05  2.3301642472141517e-05  2.3298784059687238e-05  2.3296736772816803e-05  2.3295599862199941e-05  2.3295306721285384e-05  2.3295654114270859e-05  2.3296346482268527e-05  2.3297042401482445e-05  2.3297395528543837e-05  2.3297088760649239e-05  2.3295863568374839e-05  2.3293545689931774e-05  2.3290066149264911e-05  2.3285475513755370e-05  2.3279949479428466e-05  2.3273783716758224e-05  2.3267375160980416e-05  2.3261187235330077e-05  2.3255699245069751e-05  2.3251344695502760e-05  2.3248447553252046e-05  2.3247167945287854e-05  2.3247468861505962e-05  2.3249112698048763e-05  2.3251690784770133e-05  2.3254681519620040e-05  2.3257526191542145e-05  2.3259708858443581e-05  2.3260828271278130e-05  2.3260653451477462e-05  2.3259157110253388e-05  2.3256521799888561e-05  2.3253114588854226e-05  2.3249429937673615e-05  2.3246007583199165e-05  2.3243339460506807e-05  2.3241783168357300e-05  2.3241498104738919e-05  2.3242415846118681e-05  2.3244250366609050e-05  2.3246546828969923e-05  2.3248760638118089e-05  2.3250352864103350e-05  2.3250885187654122e-05  2.3250097175513675e-05  2.3247951117745787e-05  2.3244635820989544e-05  2.3240530361060365e-05  2.3236138538079635e-05  2.3232010192849647e-05  2.3228665135436524e-05  2.3226533086858701e-05  2.3225930009236311e-05  2.3163279823966612e-05  2.3163842575363431e-05  2.3165415178287826e-05  2.3167856709500315e-05  2.3170987499032198e-05  2.3174615115146537e-05  2.3178560962241855e-05  2.3182670992740909e-05  2.3186807438258092e-05  2.3190826799072728e-05  2.3194554751571007e-05  2.3197770649839020e-05  2.3200212066708166e-05  2.3201603178438898e-05  2.3201701699997987e-05  2.3200351676448120e-05  2.3197527631013972e-05  2.3193359804789664e-05  2.3188136841122701e-05  2.3182286703936609e-05  2.3176337664713952e-05  2.3170861914043576e-05  2.3166408331943116e-05  2.3163437560055990e-05  2.3162276398063524e-05  2.3163104269131112e-05  2.3165972067702058e-05  2.3170839647338711e-05  2.3177611158035992e-05  2.3186151842993431e-05  2.3196282820743305e-05  2.3207763699280027e-05  2.3220278950943468e-05  2.3233440413749872e-05  2.3246808652411496e-05  2.3259926588446062e-05  2.3272354623611956e-05  2.3283698348452414e-05  2.3293625496857768e-05  2.3301874607538786e-05  2.3308261056788262e-05  2.3312685526977760e-05  2.3315146378440916e-05  2.3315753017910626e-05  2.3314734249885631e-05  2.3312434507398621e-05  2.3309291795141489e-05  2.3305794564909586e-05  2.3302421026972802e-05  2.3299572154863630e-05  2.3297514882999142e-05  2.3296350648729428e-05  2.3296016059335108e-05  2.3296311357564248e-05  2.3296944569040824e-05  2.3297578294481231e-05  2.3297871031880955e-05  2.3297511299698182e-05  2.3296246359615801e-05  2.3293906901570817e-05  2.3290426968805861e-05  2.3285857336689046e-05  2.3280370698249865e-05  2.3274256796087153e-05  2.3267904694764656e-05  2.3261769398416282e-05  2.3256322602185419e-05  2.3251991993316150e-05  2.3249098045829177e-05  2.3247799888154650e-05  2.3248061876708193e-05  2.3249649731675350e-05  2.3252159457714672e-05  2.3255074862400486e-05  2.3257842932471888e-05  2.3259953423731294e-05  2.3261010435560971e-05  2.3260787346107078e-05  2.3259259312562842e-05  2.3256608575422063e-05  2.3253198842022321e-05  2.3249518700127758e-05  2.3246100750823951e-05  2.3243430110177096e-05  2.3241859389566143e-05  2.3241545965200373e-05  2.3242422861968872e-05  2.3244208731434084e-05  2.3246455757792763e-05  2.3248627421475958e-05  2.3250192433671421e-05  2.3250718167094427e-05  2.3249946669903547e-05  2.3247838866601325e-05  2.3244578552962662e-05  2.3240537046364879e-05  2.3236208812444253e-05  2.3232133657462011e-05  2.3228820047370672e-05  2.3226678141552299e-05  2.3225959904779292e-05  2.3164266436818467e-05  2.3164783906656886e-05  2.3166296068969052e-05  2.3168668987670533e-05  2.3171724935088212e-05  2.3175272527704862e-05  2.3179131561918792e-05  2.3183143008206508e-05  2.3187161973948533e-05  2.3191038639490647e-05  2.3194596953322218e-05  2.3197622390012753e-05  2.3199867802978284e-05  2.3201080370780947e-05  2.3201044579760029e-05  2.3199629746881117e-05  2.3196829194037319e-05  2.3192782159677813e-05  2.3187775486507017e-05  2.3182225855240722e-05  2.3176643794730786e-05  2.3171580951148799e-05  2.3167565835769553e-05  2.3165040143104643e-05  2.3164312490167596e-05  2.3165543275675537e-05  2.3168762590115335e-05  2.3173908745533091e-05  2.3180866793926272e-05  2.3189489510768774e-05  2.3199595591048762e-05  2.3210953457666941e-05  2.3223266179293492e-05  2.3236170515089945e-05  2.3249254105452937e-05  2.3262085496528394e-05  2.3274246985612119e-05  2.3285361442851548e-05  2.3295109289763481e-05  2.3303237442797863e-05  2.3309565442837809e-05  2.3313993773150476e-05  2.3316516037447974e-05  2.3317232322055383e-05  2.3316357875359818e-05  2.3314220135000083e-05  2.3311238112261527e-05  2.3307881423044387e-05  2.3304612170255852e-05  2.3301820215640655e-05  2.3299767539714035e-05  2.3298556484344038e-05  2.3298129027518697e-05  2.3298293650669176e-05  2.3298768521564278e-05  2.3299228208220826e-05  2.3299345324399506e-05  2.3298824509456918e-05  2.3297429887838635e-05  2.3295007335742602e-05  2.3291501413038047e-05  2.3286966105455354e-05  2.3281568673585333e-05  2.3275585330956074e-05  2.3269385848242826e-05  2.3263403495297440e-05  2.3258089037260492e-05  2.3253852446460512e-05  2.3251001143184744e-05  2.3249686631351417e-05  2.3249871426804154e-05  2.3251325157421653e-05  2.3253652977713407e-05  2.3256352159848617e-05  2.3258886309258004e-05  2.3260763666279587e-05  2.3261607114020460e-05  2.3261206981349909e-05  2.3259550802099245e-05  2.3256825805724989e-05  2.3253391462571051e-05  2.3249723045031285e-05  2.3246333229060957e-05  2.3243684836732104e-05  2.3242110706343116e-05  2.3241755274254888e-05  2.3242548212314430e-05  2.3244215086645217e-05  2.3246323911755630e-05  2.3248359966393785e-05  2.3249815719752725e-05  2.3250279724918192e-05  2.3249508268937989e-05  2.3247466338322744e-05  2.3244330396948488e-05  2.3240454166862692e-05  2.3236307292964538e-05  2.3232401507093896e-05  2.3229217835203469e-05  2.3227143386985898e-05  2.3226421391352538e-05  2.3165752970759121e-05  2.3166233968227765e-05  2.3167666844332632e-05  2.3169931112595918e-05  2.3172859349959547e-05  2.3176267063971618e-05  2.3179975678309774e-05  2.3183821738369605e-05  2.3187651521545949e-05  2.3191306213145811e-05  2.3194606421210673e-05  2.3197345367888969e-05  2.3199297540955493e-05  2.3200244264899470e-05  2.3200011111864543e-05  2.3198507271956032e-05  2.3195756559049049e-05  2.3191913537513074e-05  2.3187263157756223e-05  2.3182204716812820e-05  2.3177220365439606e-05  2.3172827979538194e-05  2.3169521739712148e-05  2.3167711030626020e-05  2.3167674117693257e-05  2.3169541331178452e-05  2.3173311701172577e-05  2.3178892473207340e-05  2.3186141429792690e-05  2.3194893341985996e-05  2.3204963057950539e-05  2.3216131515662353e-05  2.3228129221153789e-05  2.3240630725391208e-05  2.3253265701024068e-05  2.3265643168820223e-05  2.3277380238162585e-05  2.3288126975753376e-05  2.3297583157264805e-05  2.3305507825403492e-05  2.3311726082618073e-05  2.3316137764871425e-05  2.3318729719445076e-05  2.3319589224737735e-05  2.3318912915107976e-05  2.3317004540080711e-05  2.3314255968389243e-05  2.3311108998009275e-05  2.3308000914302028e-05  2.3305303375003485e-05  2.3303269059164604e-05  2.3302000076389275e-05  2.3301445515695549e-05  2.3301425855381289e-05  2.3301674317829675e-05  2.3301883060190081e-05  2.3301745158791644e-05  2.3300988567337369e-05  2.3299402056671635e-05  2.3296854167789602e-05  2.3293305766498139e-05  2.3288816752242927e-05  2.3283547701824056e-05  2.3277756089424208e-05  2.3271784068735049e-05  2.3266033103368541e-05  2.3260922627745993e-05  2.3256835296884191e-05  2.3254057425898202e-05  2.3252726927073762e-05  2.3252801103616817e-05  2.3254053238673420e-05  2.3256100876410614e-05  2.3258461474573544e-05  2.3260624941118709e-05  2.3262129661614079e-05  2.3262629607015905e-05  2.3261943425023531e-05  2.3260079724141921e-05  2.3257235065241043e-05  2.3253763445301497e-05  2.3250119774443018e-05  2.3246785050151813e-05  2.3244185663233817e-05  2.3242621122541751e-05  2.3242212795865065e-05  2.3242882381969268e-05  2.3244364170829827e-05  2.3246249883611809e-05  2.3248059027768210e-05  2.3249322475333428e-05  2.3249664063140184e-05  2.3248865147129028e-05  2.3246900119982616e-05  2.3243936800956850e-05  2.3240303581834514e-05  2.3236432774196785e-05  2.3232793466731159e-05  2.3229826031488914e-05  2.3227886222147265e-05  2.3227203378826241e-05  2.3167618590787443e-05  2.3168058178622424e-05  2.3169386918126198e-05  2.3171498827683890e-05  2.3174242032751400e-05  2.3177444794866719e-05  2.3180935091471267e-05  2.3184548216236184e-05  2.3188122839074699e-05  2.3191490983141149e-05  2.3194469633814719e-05  2.3196860987145894e-05  2.3198465247726975e-05  2.3199105239246258e-05  2.3198657363450773e-05  2.3197080814846600e-05  2.3194437967008802e-05  2.3190902667613081e-05  2.3186756790896678e-05  2.3182376058152713e-05  2.3178204106491739e-05  2.3174712577793408e-05  2.3172348317461175e-05  2.3171476447192574e-05  2.3172335017667756e-05  2.3175016772134440e-05  2.3179484057938534e-05  2.3185608616670695e-05  2.3193217324190168e-05  2.3202124430616316e-05  2.3212140479296246e-05  2.3223061568768388e-05  2.3234651913311133e-05  2.3246633346771327e-05  2.3258688963847107e-05  2.3270479709603880e-05  2.3281667253811557e-05  2.3291935756476911e-05  2.3301008116285475e-05  2.3308656658055908e-05  2.3314711546168246e-05  2.3319070777651418e-05  2.3321713180784339e-05  2.3322712008616506e-05  2.3322243764204285e-05  2.3320586118957920e-05  2.3318100099805871e-05  2.3315194735649562e-05  2.3312276993404155e-05  2.3309695424281688e-05  2.3307690203762744e-05  2.3306362247844358e-05  2.3305668792704195e-05  2.3305444534241782e-05  2.3305440284229425e-05  2.3305368186361819e-05  2.3304944145365777e-05  2.3303922161565686e-05  2.3302118990368341e-05  2.3299429550736027e-05  2.3295834411947374e-05  2.3291401591047662e-05  2.3286285268454343e-05  2.3280722233250575e-05  2.3275023014700812e-05  2.3269551765076090e-05  2.3264690324884176e-05  2.3260787702750826e-05  2.3258103256232185e-05  2.3256756391889090e-05  2.3256695758125462e-05  2.3257696991859462e-05  2.3259391526976718e-05  2.3261321664410521e-05  2.3263011211378486e-05  2.3264038361043311e-05  2.3264098507463843e-05  2.3263047977137197e-05  2.3260923221061412e-05  2.3257932987801651e-05  2.3254423986649281e-05  2.3250824336906599e-05  2.3247573330792631e-05  2.3245049166389844e-05  2.3243506843944386e-05  2.3243036306657361e-05  2.3243547433939347e-05  2.3244784700275559e-05  2.3246370043556111e-05  2.3247867493531632e-05  2.3248858405541606e-05  2.3249013469109058e-05  2.3248148014213901e-05  2.3246250468813937e-05  2.3243479606054362e-05  2.3240133329300269e-05  2.3236597925827861e-05  2.3233289451248397e-05  2.3230597446072317e-05  2.3228837449336364e-05  2.3228215712490928e-05  2.3169677554834495e-05  2.3170068749879067e-05  2.3171267443772331e-05  2.3173183351582648e-05  2.3175684109526465e-05  2.3178616213299880e-05  2.3181820087222090e-05  2.3185135170744568e-05  2.3188396767202537e-05  2.3191430576967475e-05  2.3194051703466295e-05  2.3196072747371132e-05  2.3197321703418684e-05  2.3197666237798523e-05  2.3197038080691312e-05  2.3195451136189045e-05  2.3193009781967750e-05  2.3189907914977182e-05  2.3186421563982478e-05  2.3182896501343891e-05  2.3179728540547602e-05  2.3177332067222517e-05  2.3176095431996733e-05  2.3176329840776440e-05  2.3178226279923385e-05  2.3181836360856335e-05  2.3187085012860633e-05  2.3193809322992182e-05  2.3201806408575651e-05  2.3210870795925910e-05  2.3220809456268413e-05  2.3231435268144710e-05  2.3242549623972181e-05  2.3253927297240939e-05  2.3265312060210146e-05  2.3276424284126677e-05  2.3286976348492272e-05  2.3296690093038058e-05  2.3305312213675013e-05  2.3312626696680458e-05  2.3318466141009953e-05  2.3322724486202504e-05  2.3325371735264252e-05  2.3326467986841079e-05  2.3326171660823563e-05  2.3324736569130825e-05  2.3322494227924250e-05  2.3319820717287996e-05  2.3317091099302822e-05  2.3314628578495810e-05  2.3312658898787829e-05  2.3311280798335638e-05  2.3310459589781988e-05  2.3310044422468930e-05  2.3309803482879917e-05  2.3309467818465285e-05  2.3308774381551553e-05  2.3307501374170187e-05  2.3305492352685011e-05  2.3302668553879505e-05  2.3299031360195363e-05  2.3294658855286695e-05  2.3289701027743674e-05  2.3284375760613803e-05  2.3278962721833693e-05  2.3273788174903272e-05  2.3269194460642237e-05  2.3265493983029440e-05  2.3262915532174106e-05  2.3261556203460466e-05  2.3261352551183329e-05  2.3262080227754255e-05  2.3263384145880040e-05  2.3264833597761940e-05  2.3265991078729821e-05  2.3266481356037505e-05  2.3266048690531090e-05  2.3264593639821121e-05  2.3262184770030082e-05  2.3259044132740782e-05  2.3255508867510589e-05  2.3251974997266518e-05  2.3248832681354340e-05  2.3246403671716175e-05  2.3244890865224092e-05  2.3244347255616589e-05  2.3244668527912133e-05  2.3245610641676356e-05  2.3246830536071439e-05  2.3247944099203725e-05  2.3248591585818911e-05  2.3248498412075451e-05  2.3247519843557892e-05  2.3245661538644521e-05  2.3243073414018846e-05  2.3240020410987297e-05  2.3236838421709649e-05  2.3233885124991895e-05  2.3231493679146704e-05  2.3229933949701709e-05  2.3229383461581160e-05  2.3171697179420883e-05  2.3172035072056365e-05  2.3173082643619284e-05  2.3174766106554370e-05  2.3176975191706040e-05  2.3179578937549525e-05  2.3182435926340696e-05  2.3185396295917285e-05  2.3188298572796274e-05  2.3190967865147477e-05  2.3193221563179824e-05  2.3194885032390451e-05  2.3195814880303426e-05  2.3195923481703340e-05  2.3195197323044522e-05  2.3193704141133821e-05  2.3191588802772230e-05  2.3189062499700573e-05  2.3186390895531829e-05  2.3183883364276280e-05  2.3181879839606303e-05  2.3180728602181346e-05  2.3180751098262804e-05  2.3182198096744682e-05  2.3185210156083141e-05  2.3189798116814352e-05  2.3195853069022066e-05  2.3203182749831467e-05  2.3211559684212220e-05  2.3220762312679044e-05  2.3230595822172910e-05  2.3240890550714231e-05  2.3251485878196785e-05  2.3262211419812293e-05  2.3272874751928041e-05  2.3283259233626390e-05  2.3293130623112999e-05  2.3302249010765381e-05  2.3310382907563575e-05  2.3317324014381407e-05  2.3322902896837985e-05  2.3327006174890154e-05  2.3329594310749705e-05  2.3330716565447138e-05  2.3330518138636494e-05  2.3329235157534937e-05  2.3327175591633355e-05  2.3324687052792851e-05  2.3322115088381501e-05  2.3319758021805791e-05  2.3317826382293887e-05  2.3316415397799093e-05  2.3315496878827060e-05  2.3314932398917512e-05  2.3314504567696961e-05  2.3313959147336701e-05  2.3313048896287967e-05  2.3311570672853205e-05  2.3309390066096420e-05  2.3306451688588188e-05  2.3302777318486011e-05  2.3298457357196758e-05  2.3293642022212699e-05  2.3288535811765089e-05  2.3283392810686570e-05  2.3278505255824531e-05  2.3274177796167723e-05  2.3270685964174053e-05  2.3268226049360743e-05  2.3266869819167516e-05  2.3266538269365793e-05  2.3267003868119281e-05  2.3267922859615874e-05  2.3268891116682772e-05  2.3269511410418642e-05  2.3269458265433688e-05  2.3268528572504079e-05  2.3266670207892602e-05  2.3263985273253793e-05  2.3260708497069506e-05  2.3257165026606361e-05  2.3253715201149659e-05  2.3250696020348723e-05  2.3248368979793627e-05  2.3246881829333290e-05  2.3246248783232395e-05  2.3246351039945929e-05  2.3246957418756581e-05  2.3247762723874893e-05  2.3248438511324107e-05  2.3248687893844356e-05  2.3248294356324066e-05  2.3247155379121580e-05  2.3245295042844287e-05  2.3242854802803866e-05  2.3240066643267122e-05  2.3237216010244439e-05  2.3234602214524363e-05  2.3232501923736383e-05  2.3231138694826506e-05  2.3230659838381762e-05  2.3173425404630254e-05  2.3173709052058895e-05  2.3174594451594800e-05  2.3176023930462375e-05  2.3177909879882249e-05  2.3180146013806625e-05  2.3182613206909047e-05  2.3185178456603250e-05  2.3187691097231085e-05  2.3189983429561795e-05  2.3191881591698557e-05  2.3193227542672455e-05  2.3193907067493761e-05  2.3193874768263939e-05  2.3193167230198933e-05  2.3191900259401147e-05  2.3190253156985128e-05  2.3188448399989999e-05  2.3186735273940272e-05  2.3185380588395223e-05  2.3184662111582338e-05  2.3184856004478184e-05  2.3186211847867808e-05  2.3188917111664767e-05  2.3193062144080476e-05  2.3198620753659396e-05  2.3205456946584600e-05  2.3213357380880372e-05  2.3222077738764013e-05  2.3231385838713364e-05  2.3241087496960472e-05  2.3251030337216617e-05  2.3261090261333462e-05  2.3271150333730481e-05  2.3281081345128871e-05  2.3290729646103525e-05  2.3299914028459713e-05  2.3308431053921687e-05  2.3316067286802789e-05  2.3322616820056289e-05  2.3327902653229467e-05  2.3331800126560152e-05  2.3334259297764528e-05  2.3335321536770824e-05  2.3335125272132907e-05  2.3333897699816529e-05  2.3331932581835073e-05  2.3329557241043408e-05  2.3327093440684107e-05  2.3324817385199966e-05  2.3322924430610299e-05  2.3321504311923648e-05  2.3320532019484603e-05  2.3319877248208806e-05  2.3319331724984712e-05  2.3318649494923487e-05  2.3317591722509699e-05  2.3315966252882190e-05  2.3313653977855178e-05  2.3310618501793417e-05  2.3306901119873886e-05  2.3302607668506786e-05  2.3297895251877267e-05  2.3292963779830306e-05  2.3288050718106694e-05  2.3283421532480671e-05  2.3279347572314675e-05  2.3276068837974196e-05  2.3273747962089501e-05  2.3272428586394419e-05  2.3272012510670397e-05  2.3272265195233866e-05  2.3272850767462637e-05  2.3273389077807125e-05  2.3273521650039058e-05  2.3272972149750430e-05  2.3271589810647406e-05  2.3269369160594516e-05  2.3266444362695908e-05  2.3263060679706726e-05  2.3259529095490408e-05  2.3256172833327151e-05  2.3253275521052421e-05  2.3251039416358572e-05  2.3249559000687238e-05  2.3248811923617696e-05  2.3248666974981506e-05  2.3248907448049895e-05  2.3249266960782962e-05  2.3249472882716336e-05  2.3249290474337329e-05  2.3248559889744730e-05  2.3247219238480122e-05  2.3245310016703029e-05  2.3242965538618976e-05  2.3240386902381340e-05  2.3237812860394888e-05  2.3235489222162862e-05  2.3233641190364153e-05  2.3232450080327605e-05  2.3232035185963271e-05  2.3174628643736556e-05  2.3174861810485363e-05  2.3175587736524299e-05  2.3176762888212739e-05  2.3178320373086655e-05  2.3180177728295231e-05  2.3182239427755362e-05  2.3184393476839416e-05  2.3186506872239874e-05  2.3188427504098381e-05  2.3189998218805135e-05  2.3191082923333892e-05  2.3191597752423228e-05  2.3191536123083094e-05  2.3190977584768889e-05  2.3190076845859933e-05  2.3189038231758950e-05  2.3188087117039787e-05  2.3187449563180614e-05  2.3187344479591079e-05  2.3187983445019475e-05  2.3189567749874974e