<?xml version="1.0"?>
<VTKFile type="UnstructuredGrid"  version="0.1"  >
<UnstructuredGrid>
<Piece  NumberOfPoints="10201" NumberOfCells="20000">
<Points>
<DataArray  type="Float64"  NumberOfComponents="3"  format="ascii">0 0 0  0.25 0 0  0.5 0 0  0.75 0 0  1 0 0  1.25 0 0  1.5 0 0  1.75 0 0  2 0 0  2.25 0 0  2.5 0 0  2.75 0 0  3 0 0  3.25 0 0  3.5 0 0  3.75 0 0  4 0 0  4.25 0 0  4.5 0 0  4.75 0 0  5 0 0  5.25 0 0  5.5 0 0  5.75 0 0  6 0 0  6.25 0 0  6.5 0 0  6.75 0 0  7 0 0  7.25 0 0  7.5 0 0  7.75 0 0  8 0 0  8.25 0 0  8.5 0 0  8.75 0 0  9 0 0  9.25 0 0  9.5 0 0  9.75 0 0  10 0 0  10.25 0 0  10.5 0 0  10.75 0 0  11 0 0  11.25 0 0  11.5 0 0  11.75 0 0  12 0 0  12.25 0 0  12.5 0 0  12.75 0 0  13 0 0  13.25 0 0  13.5 0 0  13.75 0 0  14 0 0  14.25 0 0  14.5 0 0  14.75 0 0  15 0 0  15.25 0 0  15.5 0 0  15.75 0 0  16 0 0  16.25 0 0  16.5 0 0  16.75 0 0  17 0 0  17.25 0 0  17.5 0 0  17.75 0 0  18 0 0  18.25 0 0  18.5 0 0  18.75 0 0  19 0 0  19.25 0 0  19.5 0 0  19.75 0 0  20 0 0  20.25 0 0  20.5 0 0  20.75 0 0  21 0 0  21.25 0 0  21.5 0 0  21.75 0 0  22 0 0  22.25 0 0  22.5 0 0  22.75 0 0  23 0 0  23.25 0 0  23.5 0 0  23.75 0 0  24 0 0  24.25 0 0  24.5 0 0  24.75 0 0  25 0 0  0 0.25 0  0.25 0.25 0  0.5 0.25 0  0.75 0.25 0  1 0.25 0  1.25 0.25 0  1.5 0.25 0  1.75 0.25 0  2 0.25 0  2.25 0.25 0  2.5 0.25 0  2.75 0.25 0  3 0.25 0  3.25 0.25 0  3.5 0.25 0  3.75 0.25 0  4 0.25 0  4.25 0.25 0  4.5 0.25 0  4.75 0.25 0  5 0.25 0  5.25 0.25 0  5.5 0.25 0  5.75 0.25 0  6 0.25 0  6.25 0.25 0  6.5 0.25 0  6.75 0.25 0  7 0.25 0  7.25 0.25 0  7.5 0.25 0  7.75 0.25 0  8 0.25 0  8.25 0.25 0  8.5 0.25 0  8.75 0.25 0  9 0.25 0  9.25 0.25 0  9.5 0.25 0  9.75 0.25 0  10 0.25 0  10.25 0.25 0  10.5 0.25 0  10.75 0.25 0  11 0.25 0  11.25 0.25 0  11.5 0.25 0  11.75 0.25 0  12 0.25 0  12.25 0.25 0  12.5 0.25 0  12.75 0.25 0  13 0.25 0  13.25 0.25 0  13.5 0.25 0  13.75 0.25 0  14 0.25 0  14.25 0.25 0  14.5 0.25 0  14.75 0.25 0  15 0.25 0  15.25 0.25 0  15.5 0.25 0  15.75 0.25 0  16 0.25 0  16.25 0.25 0  16.5 0.25 0  16.75 0.25 0  17 0.25 0  17.25 0.25 0  17.5 0.25 0  17.75 0.25 0  18 0.25 0  18.25 0.25 0  18.5 0.25 0  18.75 0.25 0  19 0.25 0  19.25 0.25 0  19.5 0.25 0  19.75 0.25 0  20 0.25 0  20.25 0.25 0  20.5 0.25 0  20.75 0.25 0  21 0.25 0  21.25 0.25 0  21.5 0.25 0  21.75 0.25 0  22 0.25 0  22.25 0.25 0  22.5 0.25 0  22.75 0.25 0  23 0.25 0  23.25 0.25 0  23.5 0.25 0  23.75 0.25 0  24 0.25 0  24.25 0.25 0  24.5 0.25 0  24.75 0.25 0  25 0.25 0  0 0.5 0  0.25 0.5 0  0.5 0.5 0  0.75 0.5 0  1 0.5 0  1.25 0.5 0  1.5 0.5 0  1.75 0.5 0  2 0.5 0  2.25 0.5 0  2.5 0.5 0  2.75 0.5 0  3 0.5 0  3.25 0.5 0  3.5 0.5 0  3.75 0.5 0  4 0.5 0  4.25 0.5 0  4.5 0.5 0  4.75 0.5 0  5 0.5 0  5.25 0.5 0  5.5 0.5 0  5.75 0.5 0  6 0.5 0  6.25 0.5 0  6.5 0.5 0  6.75 0.5 0  7 0.5 0  7.25 0.5 0  7.5 0.5 0  7.75 0.5 0  8 0.5 0  8.25 0.5 0  8.5 0.5 0  8.75 0.5 0  9 0.5 0  9.25 0.5 0  9.5 0.5 0  9.75 0.5 0  10 0.5 0  10.25 0.5 0  10.5 0.5 0  10.75 0.5 0  11 0.5 0  11.25 0.5 0  11.5 0.5 0  11.75 0.5 0  12 0.5 0  12.25 0.5 0  12.5 0.5 0  12.75 0.5 0  13 0.5 0  13.25 0.5 0  13.5 0.5 0  13.75 0.5 0  14 0.5 0  14.25 0.5 0  14.5 0.5 0  14.75 0.5 0  15 0.5 0  15.25 0.5 0  15.5 0.5 0  15.75 0.5 0  16 0.5 0  16.25 0.5 0  16.5 0.5 0  16.75 0.5 0  17 0.5 0  17.25 0.5 0  17.5 0.5 0  17.75 0.5 0  18 0.5 0  18.25 0.5 0  18.5 0.5 0  18.75 0.5 0  19 0.5 0  19.25 0.5 0  19.5 0.5 0  19.75 0.5 0  20 0.5 0  20.25 0.5 0  20.5 0.5 0  20.75 0.5 0  21 0.5 0  21.25 0.5 0  21.5 0.5 0  21.75 0.5 0  22 0.5 0  22.25 0.5 0  22.5 0.5 0  22.75 0.5 0  23 0.5 0  23.25 0.5 0  23.5 0.5 0  23.75 0.5 0  24 0.5 0  24.25 0.5 0  24.5 0.5 0  24.75 0.5 0  25 0.5 0  0 0.75 0  0.25 0.75 0  0.5 0.75 0  0.75 0.75 0  1 0.75 0  1.25 0.75 0  1.5 0.75 0  1.75 0.75 0  2 0.75 0  2.25 0.75 0  2.5 0.75 0  2.75 0.75 0  3 0.75 0  3.25 0.75 0  3.5 0.75 0  3.75 0.75 0  4 0.75 0  4.25 0.75 0  4.5 0.75 0  4.75 0.75 0  5 0.75 0  5.25 0.75 0  5.5 0.75 0  5.75 0.75 0  6 0.75 0  6.25 0.75 0  6.5 0.75 0  6.75 0.75 0  7 0.75 0  7.25 0.75 0  7.5 0.75 0  7.75 0.75 0  8 0.75 0  8.25 0.75 0  8.5 0.75 0  8.75 0.75 0  9 0.75 0  9.25 0.75 0  9.5 0.75 0  9.75 0.75 0  10 0.75 0  10.25 0.75 0  10.5 0.75 0  10.75 0.75 0  11 0.75 0  11.25 0.75 0  11.5 0.75 0  11.75 0.75 0  12 0.75 0  12.25 0.75 0  12.5 0.75 0  12.75 0.75 0  13 0.75 0  13.25 0.75 0  13.5 0.75 0  13.75 0.75 0  14 0.75 0  14.25 0.75 0  14.5 0.75 0  14.75 0.75 0  15 0.75 0  15.25 0.75 0  15.5 0.75 0  15.75 0.75 0  16 0.75 0  16.25 0.75 0  16.5 0.75 0  16.75 0.75 0  17 0.75 0  17.25 0.75 0  17.5 0.75 0  17.75 0.75 0  18 0.75 0  18.25 0.75 0  18.5 0.75 0  18.75 0.75 0  19 0.75 0  19.25 0.75 0  19.5 0.75 0  19.75 0.75 0  20 0.75 0  20.25 0.75 0  20.5 0.75 0  20.75 0.75 0  21 0.75 0  21.25 0.75 0  21.5 0.75 0  21.75 0.75 0  22 0.75 0  22.25 0.75 0  22.5 0.75 0  22.75 0.75 0  23 0.75 0  23.25 0.75 0  23.5 0.75 0  23.75 0.75 0  24 0.75 0  24.25 0.75 0  24.5 0.75 0  24.75 0.75 0  25 0.75 0  0 1 0  0.25 1 0  0.5 1 0  0.75 1 0  1 1 0  1.25 1 0  1.5 1 0  1.75 1 0  2 1 0  2.25 1 0  2.5 1 0  2.75 1 0  3 1 0  3.25 1 0  3.5 1 0  3.75 1 0  4 1 0  4.25 1 0  4.5 1 0  4.75 1 0  5 1 0  5.25 1 0  5.5 1 0  5.75 1 0  6 1 0  6.25 1 0  6.5 1 0  6.75 1 0  7 1 0  7.25 1 0  7.5 1 0  7.75 1 0  8 1 0  8.25 1 0  8.5 1 0  8.75 1 0  9 1 0  9.25 1 0  9.5 1 0  9.75 1 0  10 1 0  10.25 1 0  10.5 1 0  10.75 1 0  11 1 0  11.25 1 0  11.5 1 0  11.75 1 0  12 1 0  12.25 1 0  12.5 1 0  12.75 1 0  13 1 0  13.25 1 0  13.5 1 0  13.75 1 0  14 1 0  14.25 1 0  14.5 1 0  14.75 1 0  15 1 0  15.25 1 0  15.5 1 0  15.75 1 0  16 1 0  16.25 1 0  16.5 1 0  16.75 1 0  17 1 0  17.25 1 0  17.5 1 0  17.75 1 0  18 1 0  18.25 1 0  18.5 1 0  18.75 1 0  19 1 0  19.25 1 0  19.5 1 0  19.75 1 0  20 1 0  20.25 1 0  20.5 1 0  20.75 1 0  21 1 0  21.25 1 0  21.5 1 0  21.75 1 0  22 1 0  22.25 1 0  22.5 1 0  22.75 1 0  23 1 0  23.25 1 0  23.5 1 0  23.75 1 0  24 1 0  24.25 1 0  24.5 1 0  24.75 1 0  25 1 0  0 1.25 0  0.25 1.25 0  0.5 1.25 0  0.75 1.25 0  1 1.25 0  1.25 1.25 0  1.5 1.25 0  1.75 1.25 0  2 1.25 0  2.25 1.25 0  2.5 1.25 0  2.75 1.25 0  3 1.25 0  3.25 1.25 0  3.5 1.25 0  3.75 1.25 0  4 1.25 0  4.25 1.25 0  4.5 1.25 0  4.75 1.25 0  5 1.25 0  5.25 1.25 0  5.5 1.25 0  5.75 1.25 0  6 1.25 0  6.25 1.25 0  6.5 1.25 0  6.75 1.25 0  7 1.25 0  7.25 1.25 0  7.5 1.25 0  7.75 1.25 0  8 1.25 0  8.25 1.25 0  8.5 1.25 0  8.75 1.25 0  9 1.25 0  9.25 1.25 0  9.5 1.25 0  9.75 1.25 0  10 1.25 0  10.25 1.25 0  10.5 1.25 0  10.75 1.25 0  11 1.25 0  11.25 1.25 0  11.5 1.25 0  11.75 1.25 0  12 1.25 0  12.25 1.25 0  12.5 1.25 0  12.75 1.25 0  13 1.25 0  13.25 1.25 0  13.5 1.25 0  13.75 1.25 0  14 1.25 0  14.25 1.25 0  14.5 1.25 0  14.75 1.25 0  15 1.25 0  15.25 1.25 0  15.5 1.25 0  15.75 1.25 0  16 1.25 0  16.25 1.25 0  16.5 1.25 0  16.75 1.25 0  17 1.25 0  17.25 1.25 0  17.5 1.25 0  17.75 1.25 0  18 1.25 0  18.25 1.25 0  18.5 1.25 0  18.75 1.25 0  19 1.25 0  19.25 1.25 0  19.5 1.25 0  19.75 1.25 0  20 1.25 0  20.25 1.25 0  20.5 1.25 0  20.75 1.25 0  21 1.25 0  21.25 1.25 0  21.5 1.25 0  21.75 1.25 0  22 1.25 0  22.25 1.25 0  22.5 1.25 0  22.75 1.25 0  23 1.25 0  23.25 1.25 0  23.5 1.25 0  23.75 1.25 0  24 1.25 0  24.25 1.25 0  24.5 1.25 0  24.75 1.25 0  25 1.25 0  0 1.5 0  0.25 1.5 0  0.5 1.5 0  0.75 1.5 0  1 1.5 0  1.25 1.5 0  1.5 1.5 0  1.75 1.5 0  2 1.5 0  2.25 1.5 0  2.5 1.5 0  2.75 1.5 0  3 1.5 0  3.25 1.5 0  3.5 1.5 0  3.75 1.5 0  4 1.5 0  4.25 1.5 0  4.5 1.5 0  4.75 1.5 0  5 1.5 0  5.25 1.5 0  5.5 1.5 0  5.75 1.5 0  6 1.5 0  6.25 1.5 0  6.5 1.5 0  6.75 1.5 0  7 1.5 0  7.25 1.5 0  7.5 1.5 0  7.75 1.5 0  8 1.5 0  8.25 1.5 0  8.5 1.5 0  8.75 1.5 0  9 1.5 0  9.25 1.5 0  9.5 1.5 0  9.75 1.5 0  10 1.5 0  10.25 1.5 0  10.5 1.5 0  10.75 1.5 0  11 1.5 0  11.25 1.5 0  11.5 1.5 0  11.75 1.5 0  12 1.5 0  12.25 1.5 0  12.5 1.5 0  12.75 1.5 0  13 1.5 0  13.25 1.5 0  13.5 1.5 0  13.75 1.5 0  14 1.5 0  14.25 1.5 0  14.5 1.5 0  14.75 1.5 0  15 1.5 0  15.25 1.5 0  15.5 1.5 0  15.75 1.5 0  16 1.5 0  16.25 1.5 0  16.5 1.5 0  16.75 1.5 0  17 1.5 0  17.25 1.5 0  17.5 1.5 0  17.75 1.5 0  18 1.5 0  18.25 1.5 0  18.5 1.5 0  18.75 1.5 0  19 1.5 0  19.25 1.5 0  19.5 1.5 0  19.75 1.5 0  20 1.5 0  20.25 1.5 0  20.5 1.5 0  20.75 1.5 0  21 1.5 0  21.25 1.5 0  21.5 1.5 0  21.75 1.5 0  22 1.5 0  22.25 1.5 0  22.5 1.5 0  22.75 1.5 0  23 1.5 0  23.25 1.5 0  23.5 1.5 0  23.75 1.5 0  24 1.5 0  24.25 1.5 0  24.5 1.5 0  24.75 1.5 0  25 1.5 0  0 1.75 0  0.25 1.75 0  0.5 1.75 0  0.75 1.75 0  1 1.75 0  1.25 1.75 0  1.5 1.75 0  1.75 1.75 0  2 1.75 0  2.25 1.75 0  2.5 1.75 0  2.75 1.75 0  3 1.75 0  3.25 1.75 0  3.5 1.75 0  3.75 1.75 0  4 1.75 0  4.25 1.75 0  4.5 1.75 0  4.75 1.75 0  5 1.75 0  5.25 1.75 0  5.5 1.75 0  5.75 1.75 0  6 1.75 0  6.25 1.75 0  6.5 1.75 0  6.75 1.75 0  7 1.75 0  7.25 1.75 0  7.5 1.75 0  7.75 1.75 0  8 1.75 0  8.25 1.75 0  8.5 1.75 0  8.75 1.75 0  9 1.75 0  9.25 1.75 0  9.5 1.75 0  9.75 1.75 0  10 1.75 0  10.25 1.75 0  10.5 1.75 0  10.75 1.75 0  11 1.75 0  11.25 1.75 0  11.5 1.75 0  11.75 1.75 0  12 1.75 0  12.25 1.75 0  12.5 1.75 0  12.75 1.75 0  13 1.75 0  13.25 1.75 0  13.5 1.75 0  13.75 1.75 0  14 1.75 0  14.25 1.75 0  14.5 1.75 0  14.75 1.75 0  15 1.75 0  15.25 1.75 0  15.5 1.75 0  15.75 1.75 0  16 1.75 0  16.25 1.75 0  16.5 1.75 0  16.75 1.75 0  17 1.75 0  17.25 1.75 0  17.5 1.75 0  17.75 1.75 0  18 1.75 0  18.25 1.75 0  18.5 1.75 0  18.75 1.75 0  19 1.75 0  19.25 1.75 0  19.5 1.75 0  19.75 1.75 0  20 1.75 0  20.25 1.75 0  20.5 1.75 0  20.75 1.75 0  21 1.75 0  21.25 1.75 0  21.5 1.75 0  21.75 1.75 0  22 1.75 0  22.25 1.75 0  22.5 1.75 0  22.75 1.75 0  23 1.75 0  23.25 1.75 0  23.5 1.75 0  23.75 1.75 0  24 1.75 0  24.25 1.75 0  24.5 1.75 0  24.75 1.75 0  25 1.75 0  0 2 0  0.25 2 0  0.5 2 0  0.75 2 0  1 2 0  1.25 2 0  1.5 2 0  1.75 2 0  2 2 0  2.25 2 0  2.5 2 0  2.75 2 0  3 2 0  3.25 2 0  3.5 2 0  3.75 2 0  4 2 0  4.25 2 0  4.5 2 0  4.75 2 0  5 2 0  5.25 2 0  5.5 2 0  5.75 2 0  6 2 0  6.25 2 0  6.5 2 0  6.75 2 0  7 2 0  7.25 2 0  7.5 2 0  7.75 2 0  8 2 0  8.25 2 0  8.5 2 0  8.75 2 0  9 2 0  9.25 2 0  9.5 2 0  9.75 2 0  10 2 0  10.25 2 0  10.5 2 0  10.75 2 0  11 2 0  11.25 2 0 
[...]
<PointData  Scalars="f_26"> 
<DataArray  type="Float64"  Name="f_26"  format="ascii">2.6658754792638586e-05  2.6637184662469509e-05  2.6588458006644462e-05  2.6508087650615028e-05  2.6392371798218180e-05  2.6237753318212067e-05  2.6041472929600477e-05  2.5802761093353591e-05  2.5524184747383646e-05  2.5212654918784655e-05  2.4879432437632025e-05  2.4538856097882459e-05  2.4208452850372641e-05  2.3911967796362654e-05  2.3671749190085852e-05  2.3477166383893560e-05  2.3318563306410414e-05  2.3195939637722967e-05  2.3108421127346912e-05  2.3052628383731492e-05  2.3023336136811236e-05  2.3014570655369174e-05  2.3020454123815727e-05  2.3035709067810454e-05  2.3056030887025943e-05  2.3078383247861061e-05  2.3101108350315473e-05  2.3123791694502130e-05  2.3146946176572403e-05  2.3171627580904703e-05  2.3199059581557501e-05  2.3230300500222222e-05  2.3265967578352501e-05  2.3306041580640552e-05  2.3349778835305377e-05  2.3395743097726445e-05  2.3441942240132392e-05  2.3486032520240222e-05  2.3525546823862042e-05  2.3558110897476746e-05  2.3581625622283020e-05  2.3594407392789355e-05  2.3595288946598219e-05  2.3583688109653863e-05  2.3559652127139641e-05  2.3523881705945364e-05  2.3477732891517642e-05  2.3423187629824556e-05  2.3362776838961500e-05  2.3299435707130645e-05  2.3236274492623946e-05  2.3176265999635177e-05  2.3121886891350905e-05  2.3074793518905342e-05  2.3035633664126537e-05  2.3004063312069490e-05  2.2978957339403368e-05  2.2958723632760009e-05  2.2941604839501000e-05  2.2925886108695186e-05  2.2909987192526605e-05  2.2892443652502821e-05  2.2871837907481194e-05  2.2846547944302935e-05  2.2814804461038449e-05  2.2773022455091220e-05  2.2719340604215571e-05  2.2634749770833398e-05  2.2535421991264618e-05  2.2238466889159420e-05  2.1860322272306722e-05  2.2082079279658372e-05  2.2423785513350968e-05  2.2803212814181034e-05  2.3198368458224093e-05  2.3586221063836430e-05  2.3945976679052306e-05  2.4262381760889535e-05  2.4527900827634547e-05  2.4742105907709846e-05  2.4909510486048451e-05  2.5037145906653683e-05  2.5132663033580201e-05  2.5203175663052266e-05  2.5254728539964755e-05  2.5292172369790419e-05  2.5319254145382242e-05  2.5338794146880127e-05  2.5352877627384662e-05  2.5363027590113449e-05  2.5370347094112867e-05  2.5375630498141086e-05  2.5379447613933666e-05  2.5382205998721328e-05  2.5384196377067859e-05  2.5385625389559158e-05  2.5386638967558610e-05  2.5387338805790673e-05  2.5387793666522283e-05  2.5388046430036849e-05  2.5388116081430667e-05  2.6627709138762042e-05  2.6610604897271799e-05  2.6562532603239216e-05  2.6481825512063322e-05  2.6365506976298862e-05  2.6210327654592326e-05  2.6013761146683834e-05  2.5775244395781359e-05  2.5497492436732091e-05  2.5187445767214128e-05  2.4856212835742547e-05  2.4517985890941621e-05  2.4190126798342802e-05  2.3895600316461262e-05  2.3657297030532346e-05  2.3464553979108200e-05  2.3306645655625488e-05  2.3185009974030041e-05  2.3098885497165154e-05  2.3044847768310015e-05  2.3017449021544522e-05  2.3010445527207752e-05  2.3017767308501866e-05  2.3034066074487004e-05  2.3055065833133031e-05  2.3077813225204743e-05  2.3100748150338701e-05  2.3123542954902635e-05  2.3146774711015277e-05  2.3171539325816309e-05  2.3199081222367878e-05  2.3230466908203221e-05  2.3266315506644215e-05  2.3306607590607899e-05  2.3350598982638163e-05  2.3396852413195440e-05  2.3443373118804437e-05  2.3487812155264502e-05  2.3527694353831133e-05  2.3560634950466962e-05  2.3584522636682104e-05  2.3597660710245912e-05  2.3598868390605243e-05  2.3587549685624387e-05  2.3563737624047235e-05  2.3528118306763294e-05  2.3482033331794935e-05  2.3427451852545578e-05  2.3366896288426252e-05  2.3303301161678465e-05  2.3239787464305096e-05  2.3179352147263714e-05  2.3124507897864812e-05  2.3076952622539226e-05  2.3037371214889993e-05  2.3005442853856252e-05  2.2980047479110108e-05  2.2959582611310390e-05  2.2942271839333746e-05  2.2926379502086054e-05  2.2910305612881101e-05  2.2892572253424545e-05  2.2871738854322476e-05  2.2846204369469161e-05  2.2814060524839374e-05  2.2772182071851317e-05  2.2716937568557873e-05  2.2635623244359339e-05  2.2524648871622763e-05  2.2253972499782640e-05  2.1874608954250643e-05  2.2082915086738792e-05  2.2423734331344266e-05  2.2802776690584141e-05  2.3197664245322319e-05  2.3585537351765496e-05  2.3945618526511735e-05  2.4262427453960739e-05  2.4528276795312500e-05  2.4742676241959478e-05  2.4910144402289795e-05  2.5037750670361593e-05  2.5133188482337571e-05  2.5203604456425995e-05  2.5255063378886958e-05  2.5292425629830474e-05  2.5319441205505120e-05  2.5338929808281835e-05  2.5352974571871768e-05  2.5363095987514396e-05  2.5370394764665604e-05  2.5375663286910920e-05  2.5379469802106223e-05  2.5382220674800839e-05  2.5384205743196117e-05  2.5385631004321638e-05  2.5386641942634961e-05  2.5387340001036456e-05  2.5387794034819693e-05  2.5388048162535956e-05  2.5388127660491175e-05  2.6550272012754570e-05  2.6533849263615831e-05  2.6485376019443997e-05  2.6403364343413269e-05  2.6285296546999240e-05  2.6128430182929509e-05  2.5930802753224548e-05  2.5692441683935303e-05  2.5416580787677603e-05  2.5110451823498095e-05  2.4785044410493353e-05  2.4454328515093353e-05  2.4135517085184236e-05  2.3851475693007966e-05  2.3622030361810331e-05  2.3434217767678445e-05  2.3280642905661014e-05  2.3163562565871835e-05  2.3081880636203714e-05  2.3031971730460868e-05  2.3008137214444949e-05  2.3003979967431811e-05  2.3013399485938952e-05  2.3031124462391067e-05  2.3053023271507925e-05  2.3076308475774917e-05  2.3099571147793184e-05  2.3122601672663626e-05  2.3146060063243741e-05  2.3171096903183962e-05  2.3198991461330404e-05  2.3230831625548732e-05  2.3267248119189985e-05  2.3308225101874245e-05  2.3353014717365874e-05  2.3400169119465078e-05  2.3447676517151805e-05  2.3493165327674270e-05  2.3534133391792663e-05  2.3568165988948974e-05  2.3593120006109768e-05  2.3607265705583857e-05  2.3609388191780777e-05  2.3598856221253376e-05  2.3575666566355884e-05  2.3540468861722262e-05  2.3494569991652600e-05  2.3439909689234846e-05  2.3378991449589272e-05  2.3314747691520579e-05  2.3250320249313392e-05  2.3188753787449779e-05  2.3132634868018980e-05  2.3083753699218887e-05  2.3042890437165470e-05  2.3009802896229281e-05  2.2983417300208399e-05  2.2962140351481754e-05  2.2944174457440250e-05  2.2927744951391700e-05  2.2911207081066035e-05  2.2893039310229292e-05  2.2871764471145118e-05  2.2845738672031757e-05  2.2813052814645896e-05  2.2770411287387313e-05  2.2714600739935342e-05  2.2631311106311032e-05  2.2520772570988365e-05  2.2243986156317316e-05  2.1877809517467946e-05  2.2084671031062175e-05  2.2424907210276372e-05  2.2803712247395677e-05  2.3198433194321967e-05  2.3586226861045168e-05  2.3946323755902947e-05  2.4263185095691600e-05  2.4529065203867464e-05  2.4743445634849121e-05  2.4910846113148478e-05  2.5038353039011626e-05  2.5133679762117070e-05  2.5203988417079814e-05  2.5255352909952978e-05  2.5292637283813416e-05  2.5319591594787792e-05  2.5339033694300008e-05  2.5353044136883695e-05  2.5363140796793191e-05  2.5370422063281646e-05  2.5375678413235582e-05  2.5379476602241368e-05  2.5382221866688059e-05  2.5384203215949788e-05  2.5385626058290091e-05  2.5386635488319587e-05  2.5387332748782114e-05  2.5387786725568151e-05  2.5388041858450837e-05  2.5388123527894017e-05  2.6421551121134399e-05  2.6404915686350177e-05  2.6355263994418320e-05  2.6271210591850222e-05  2.6150703411474120e-05  2.5991687965643152e-05  2.5793044802259300e-05  2.5555699167358929e-05  2.5283660210216800e-05  2.4984537996243207e-05  2.4669155054251672e-05  2.4351299854726960e-05  2.4048058298668170e-05  2.3782082704457432e-05  2.3566443116685232e-05  2.3386882017217072e-05  2.3241377077027141e-05  2.3132218745044679e-05  2.3057981149679338e-05  2.3014641391966994e-05  2.2996145354229929e-05  2.2995971616434376e-05  2.3008107900618220e-05  2.3027518718835150e-05  2.3050370451380713e-05  2.3074163010060924e-05  2.3097718383883250e-05  2.3120988227159198e-05  2.3144734994266991e-05  2.3170172267412751e-05  2.3198619079882217e-05  2.3231188775168571e-05  2.3268526250642264e-05  2.3310618805892973e-05  2.3356710486627811e-05  2.3405334405982509e-05  2.3454449780347064e-05  2.3501647770664041e-05  2.3544382879218578e-05  2.3580193135293865e-05  2.3606885857098997e-05  2.3622680154302923e-05  2.3626308397979135e-05  2.3617084734033637e-05  2.3594949445985040e-05  2.3560494784550006e-05  2.3514972064610065e-05  2.3460272369425776e-05  2.3398865230863307e-05  2.3333673588981561e-05  2.3267864221617408e-05  2.3204548206623366e-05  2.3146420484083795e-05  2.3095411912774690e-05  2.3052453908749592e-05  2.3017436383363913e-05  2.2989371732689575e-05  2.2966695223460144e-05  2.2947586890835161e-05  2.2930216691324422e-05  2.2912869880078692e-05  2.2893953654259456e-05  2.2871920419379668e-05  2.2845063459178429e-05  2.2811381904214699e-05  2.2767527391550767e-05  2.2710020280494143e-05  2.2624449111483031e-05  2.2510566951127036e-05  2.2225031291225326e-05  2.1878621608282740e-05  2.2087282075516936e-05  2.2427172552863674e-05  2.2805828664686054e-05  2.3200375965387232e-05  2.3587971633243748e-05  2.3947866448730339e-05  2.4264529744834015e-05  2.4530214747421686e-05  2.4744403517468597e-05  2.4911620698250599e-05  2.5038959643742590e-05  2.5134139558009118e-05  2.5204325623941664e-05  2.5255591866636022e-05  2.5292800287850221e-05  2.5319697723351001e-05  2.5339098439786585e-05  2.5353079574386179e-05  2.5363156027457099e-05  2.5370423752551551e-05  2.5375671316735450e-05  2.5379464027046346e-05  2.5382206050788630e-05  2.5384185628442880e-05  2.5385607632717297e-05  2.5386616805726270e-05  2.5387314186401386e-05  2.5387768573524677e-05  2.5388024346884150e-05  2.5388106529359523e-05  2.6238064029339551e-05  2.6221104758021521e-05  2.6170077872147378e-05  2.6083894762955213e-05  2.5961118478903047e-05  2.5800575921881047e-05  2.5602209429486126e-05  2.5368029859237392e-05  2.5102889757792774e-05  2.4814656829669698e-05  2.4514054866322978e-05  2.4214717305402070e-05  2.3933708163093432e-05  2.3691862181528920e-05  2.3492144106464098e-05  2.3323827978815264e-05  2.3189961648049072e-05  2.3092077710461904e-05  2.3028266051516223e-05  2.2993804920989760e-05  2.2982216373482372e-05  2.2986940238415757e-05  2.3002220488472489e-05  2.3023433271781689e-05  2.3047188809619470e-05  2.3071379837367895e-05  2.3095126377197927e-05  2.3118578548746225e-05  2.3142619132352845e-05  2.3168532451399451e-05  2.3197680707691337e-05  2.3231204231966186e-05  2.3269762084071579e-05  2.3313342692579129e-05  2.3361177570830407e-05  2.3411773765582491e-05  2.3463051967106893e-05  2.3512554389971116e-05  2.3557678940581207e-05  2.3595902227875289e-05  2.3624967405073468e-05  2.3643027582159190e-05  2.3648747163504069e-05  2.3641369720238412e-05  2.3620761945412425e-05  2.3587440175115148e-05  2.3542580254314025e-05  2.3488004083374117e-05  2.3426127870775155e-05  2.3359850032366172e-05  2.3292355804863413e-05  2.3226829060984121e-05  2.3166095139007205e-05  2.3112263083203068e-05  2.3066464736250906e-05  2.3028774857719614e-05  2.2998337501451861e-05  2.2973645252431288e-05  2.2952864100380401e-05  2.2934099209505392e-05  2.2915544828833883e-05  2.2895509640729720e-05  2.2872346313075690e-05  2.2844250969452949e-05  2.2809098578306147e-05  2.2763424185956379e-05  2.2703435198990431e-05  2.2614522450740931e-05  2.2495316827924245e-05  2.2200017601228296e-05  2.1879243883900676e-05  2.2090619864884336e-05  2.2430212041080461e-05  2.2808739950057084e-05  2.3203069790308611e-05  2.3590361954348126e-05  2.3949901659058462e-05  2.4266199533103535e-05  2.4531539543295061e-05  2.4745421987655076e-05  2.4912379668412084e-05  2.5039507076803637e-05  2.5134520195940746e-05  2.5204578653507050e-05  2.5255750011903584e-05  2.5292889837974482e-05  2.5319739110879300e-05  2.5339107084807990e-05  2.5353066800222556e-05  2.5363129929177254e-05  2.5370389956915564e-05  2.5375633611361491e-05  2.5379424860504554e-05  2.5382166917950187e-05  2.5384147360558427e-05  2.5385570612279400e-05  2.5386581123770155e-05  2.5387279754182675e-05  2.5387735188432328e-05  2.5387991690493940e-05  2.5388074063671064e-05  2.5998259239618779e-05  2.5981199673670191e-05  2.5929217570805053e-05  2.5841689936823085e-05  2.5717949717314057e-05  2.5557852626573778e-05  2.5362510811529833e-05  2.5135020358654838e-05  2.4880888114607164e-05  2.4608177641386720e-05  2.4327658607000360e-05  2.4052719181299748e-05  2.3800279238227314e-05  2.3584847837943925e-05  2.3401334951594779e-05  2.3247910256155579e-05  2.3129411530803265e-05  2.3046196000007913e-05  2.2995522456175940e-05  2.2971733406234063e-05  2.2968007077720514e-05  2.2977971645337628e-05  2.2996373711955118e-05  2.3019188631354722e-05  2.3043592132072520e-05  2.3067940201099136e-05  2.3091686870611535e-05  2.3115196302717711e-05  2.3139476805889500e-05  2.3165884291795678e-05  2.3195823480667151e-05  2.3230460442571260e-05  2.3270466581032388e-05  2.3315828884507133e-05  2.3365762799330012e-05  2.3418744496009816e-05  2.3472649728568227e-05  2.3524963662885445e-05  2.3573018098030564e-05  2.3614217827524482e-05  2.3646231046924350e-05  2.3667133904739827e-05  2.3675511612127889e-05  2.3670525297488994e-05  2.3651954981728988e-05  2.3620226129079096e-05  2.3576421692726747e-05  2.3522274283200210e-05  2.3460124637633384e-05  2.3392824583011517e-05  2.3323559759401181e-05  2.3255577886727813e-05  2.3191839443766989e-05  2.3134652472660010e-05  2.3085385477281683e-05  2.3044345234810562e-05  2.3010856548975097e-05  2.2983509011451580e-05  2.2960476497135857e-05  2.2939801861899961e-05  2.2919575333535128e-05  2.2897984439361529e-05  2.2873253943020569e-05  2.2843452967436849e-05  2.2806290301979211e-05  2.2758166649517514e-05  2.2694822370147698e-05  2.2601712669959890e-05  2.2475082568582553e-05  2.2171260305493738e-05  2.1880550282901600e-05  2.2094358420913333e-05  2.2433553349409889e-05  2.2811913157855631e-05  2.3205962891974564e-05  2.3592869423695666e-05  2.3951962500628500e-05  2.4267809380485546e-05  2.4532737782439791e-05  2.4746272033707426e-05  2.4912951882296175e-05  2.5039867644514363e-05  2.5134725679338903e-05  2.5204674459917333e-05  2.5255771020099479e-05  2.5292861944963423e-05  2.5319680994859193e-05  2.5339031846359116e-05  2.5352983353373577e-05  2.5363044118898267e-05  2.5370305425665139e-05  2.5375552453582051e-05  2.5379348106293745e-05  2.5382094883526761e-05  2.5384079897389617e-05  2.5385507280483985e-05  2.5386521309099967e-05  2.5387222741234063e-05  2.5387680195506219e-05  2.5387937866358389e-05  2.5388020456584236e-05  2.5704419569324938e-05  2.5687673962929234e-05  2.5635749748861920e-05  2.5548588401777490e-05  2.5426371494460899e-05  2.5270011759541759e-05  2.5081705314304424e-05  2.4865378709964030e-05  2.4627050342557186e-05  2.4375099870407635e-05  2.4120172167769075e-05  2.3875288086293791e-05  2.3654939377049567e-05  2.3463225886601283e-05  2.3297565040890159e-05  2.3163392145134437e-05  2.3064023346915687e-05  2.2998642869676627e-05  2.2963137558862721e-05  2.2950916933505126e-05  2.2955144046022661e-05  2.2970014331771049e-05  2.2991050305262045e-05  2.3014975688531911e-05  2.3039598649255362e-05  2.3063760069102078e-05  2.3087248770214699e-05  2.3110636760187510e-05  2.3135051115519242e-05  2.3161913951443807e-05  2.3192668437487250e-05  2.3228503129829498e-05  2.3270099082954636e-05  2.3317439718814278e-05  2.3369722749502082e-05  2.3425391744483624e-05  2.3482274965112704e-05  2.3537796577690544e-05  2.3589216895709117e-05  2.3633862504305270e-05  2.3669319758978379e-05  2.3693580815049310e-05  2.3705144530818578e-05  2.3703081998354517e-05  2.3687077937583635e-05  2.3657456413539423e-05  2.3615193998875792e-05  2.3561916489040895e-05  2.3499866955802683e-05  2.3431824383202930e-05  2.3360947230096507e-05  2.3290523161813437e-05  2.3223633577102960e-05  2.3162785878718864e-05  2.3109602787202458e-05  2.3064657457072784e-05  2.3027501379061009e-05  2.2996867969751189e-05  2.2970974682729565e-05  2.2947819457826762e-05  2.2925387581721676e-05  2.2901730587230832e-05  2.2874922166180892e-05  2.2842875552057714e-05  2.2803100566864954e-05  2.2751834538973696e-05  2.2684259553036505e-05  2.2586120925045073e-05  2.2450210559177773e-05  2.2141255452338631e-05  2.1882816087888186e-05  2.2098018026416711e-05  2.2436592681015072e-05  2.2814683329279949e-05  2.3208374137404477e-05  2.3594840009166031e-05  2.3953459695690363e-05  2.4268857638891022e-05  2.4533401443312685e-05  2.4746632611107704e-05  2.4913090051343003e-05  2.5039852963081912e-05  2.5134612928793075e-05  2.5204504068365039e-05  2.5255571334219092e-05  2.5292651948012331e-05  2.5319472788957242e-05  2.5338832663678069e-05  2.5352797082032235e-05  2.5362872414998216e-05  2.5370148501726682e-05  2.5375409625411119e-05  2.5379218164301385e-05  2.5381976338633214e-05  2.5383971138361535e-05  2.5385406669114892e-05  2.5386427231521364e-05  2.5387133627251177e-05  2.5387594513175891e-05  2.5387854097615332e-05  2.5387937065273422e-05  2.5364552164839618e-05  2.5348592876350294e-05  2.5298192380852294e-05  2.5213844427487645e-05  2.5096510235801450e-05  2.4947978030053538e-05  2.4771255897788627e-05  2.4570976447016563e-05  2.4353669586597992e-05  2.4127724706174578e-05  2.3903237773710468e-05  2.3691608361595245e-05  2.3500040198140486e-05  2.3329808873735234e-05  2.3186650540124236e-05  2.3076172031880580e-05  2.2999544180755905e-05  2.2954314991192944e-05  2.2934689943145883e-05  2.2933636729963540e-05  2.2944909303605942e-05  2.2963697074803181e-05  2.2986494689638025e-05  2.3010830260498243e-05  2.3035137436690127e-05  2.3058713014161221e-05  2.3081649912821691e-05  2.3104703934612384e-05  2.3129104831224981e-05  2.3156330856365722e-05  2.3187857199347586e-05  2.3224890615229962e-05  2.3268119262612984e-05  2.3317522346173785e-05  2.3372281007374870e-05  2.3430808402736527e-05  2.3490887241311332e-05  2.3549881307501885e-05  2.3604978354025350e-05  2.3653424302840742e-05  2.3692720446014095e-05  2.3720771471987083e-05  2.3735986381015172e-05  2.3737342558599583e-05  2.3724425099454890e-05  2.3697450827894805e-05  2.3657281309654418e-05  2.3605422484302058e-05  2.3544000596425870e-05  2.3475695458175509e-05  2.3403605669875171e-05  2.3331023562280647e-05  2.3261119941769078e-05  2.3196580759403854e-05  2.3139278294571496e-05  2.3090066814162016e-05  2.3048758079794346e-05  2.3014274702695046e-05  2.2984922288268169e-05  2.2958685791908375e-05  2.2933459430795344e-05  2.2907155723431037e-05  2.2877682475959059e-05  2.2842773863536389e-05  2.2799717008158700e-05  2.2744558490356973e-05  2.2671898039019521e-05  2.2567935087681361e-05  2.2421541025204344e-05  2.2112505614485834e-05  2.1886021833359153e-05  2.2101009021931996e-05  2.2438610393388606e-05  2.2816262568708481e-05  2.3209496389119426e-05  2.3595494377466899e-05  2.3953682932702051e-05  2.4268729547512766e-05  2.4533020753169511e-05  2.4746094630979407e-05  2.4912473328367388e-05  2.5039214924056883e-05  2.5133991374975528e-05  2.5203921230934238e-05  2.5255038306161477e-05  2.5292172458436672e-05  2.5319046033563604e-05  2.5338455265212326e-05  2.5352464372906773e-05  2.5362579237097999e-05  2.5369889680616342e-05  2.5375180232816180e-05  2.5379013646557363e-05  2.5381792562206521e-05  2.5383804385206390e-05  2.5385253602357252e-05  2.5386284843825875e-05  2.5386999178897522e-05  2.5387465463731251e-05  2.5387728034247274e-05  2.5387811632371381e-05  2.4993035300117372e-05  2.4978208961843716e-05  2.4930923493710258e-05  2.4852027771231287e-05  2.4743046874256447e-05  2.4606449667156176e-05  2.4445935557570813e-05  2.4266622144818269e-05  2.4075009395318906e-05  2.3878774808257464e-05  2.3686174820268176e-05  2.3503721505199815e-05  2.3336431033765356e-05  2.3191844084847450e-05  2.3076764669904308e-05  2.2994048280371038e-05  2.2942714216413680e-05  2.2917991897768003e-05  2.2913014610255059e-05  2.2921302808619233e-05  2.2937866612012902e-05  2.2959150678541796e