<?xml version="1.0"?>
<VTKFile type="UnstructuredGrid"  version="0.1"  >
<UnstructuredGrid>
<Piece  NumberOfPoints="10201" NumberOfCells="20000">
<Points>
<DataArray  type="Float64"  NumberOfComponents="3"  format="ascii">0 0 0  0.25 0 0  0.5 0 0  0.75 0 0  1 0 0  1.25 0 0  1.5 0 0  1.75 0 0  2 0 0  2.25 0 0  2.5 0 0  2.75 0 0  3 0 0  3.25 0 0  3.5 0 0  3.75 0 0  4 0 0  4.25 0 0  4.5 0 0  4.75 0 0  5 0 0  5.25 0 0  5.5 0 0  5.75 0 0  6 0 0  6.25 0 0  6.5 0 0  6.75 0 0  7 0 0  7.25 0 0  7.5 0 0  7.75 0 0  8 0 0  8.25 0 0  8.5 0 0  8.75 0 0  9 0 0  9.25 0 0  9.5 0 0  9.75 0 0  10 0 0  10.25 0 0  10.5 0 0  10.75 0 0  11 0 0  11.25 0 0  11.5 0 0  11.75 0 0  12 0 0  12.25 0 0  12.5 0 0  12.75 0 0  13 0 0  13.25 0 0  13.5 0 0  13.75 0 0  14 0 0  14.25 0 0  14.5 0 0  14.75 0 0  15 0 0  15.25 0 0  15.5 0 0  15.75 0 0  16 0 0  16.25 0 0  16.5 0 0  16.75 0 0  17 0 0  17.25 0 0  17.5 0 0  17.75 0 0  18 0 0  18.25 0 0  18.5 0 0  18.75 0 0  19 0 0  19.25 0 0  19.5 0 0  19.75 0 0  20 0 0  20.25 0 0  20.5 0 0  20.75 0 0  21 0 0  21.25 0 0  21.5 0 0  21.75 0 0  22 0 0  22.25 0 0  22.5 0 0  22.75 0 0  23 0 0  23.25 0 0  23.5 0 0  23.75 0 0  24 0 0  24.25 0 0  24.5 0 0  24.75 0 0  25 0 0  0 0.25 0  0.25 0.25 0  0.5 0.25 0  0.75 0.25 0  1 0.25 0  1.25 0.25 0  1.5 0.25 0  1.75 0.25 0  2 0.25 0  2.25 0.25 0  2.5 0.25 0  2.75 0.25 0  3 0.25 0  3.25 0.25 0  3.5 0.25 0  3.75 0.25 0  4 0.25 0  4.25 0.25 0  4.5 0.25 0  4.75 0.25 0  5 0.25 0  5.25 0.25 0  5.5 0.25 0  5.75 0.25 0  6 0.25 0  6.25 0.25 0  6.5 0.25 0  6.75 0.25 0  7 0.25 0  7.25 0.25 0  7.5 0.25 0  7.75 0.25 0  8 0.25 0  8.25 0.25 0  8.5 0.25 0  8.75 0.25 0  9 0.25 0  9.25 0.25 0  9.5 0.25 0  9.75 0.25 0  10 0.25 0  10.25 0.25 0  10.5 0.25 0  10.75 0.25 0  11 0.25 0  11.25 0.25 0  11.5 0.25 0  11.75 0.25 0  12 0.25 0  12.25 0.25 0  12.5 0.25 0  12.75 0.25 0  13 0.25 0  13.25 0.25 0  13.5 0.25 0  13.75 0.25 0  14 0.25 0  14.25 0.25 0  14.5 0.25 0  14.75 0.25 0  15 0.25 0  15.25 0.25 0  15.5 0.25 0  15.75 0.25 0  16 0.25 0  16.25 0.25 0  16.5 0.25 0  16.75 0.25 0  17 0.25 0  17.25 0.25 0  17.5 0.25 0  17.75 0.25 0  18 0.25 0  18.25 0.25 0  18.5 0.25 0  18.75 0.25 0  19 0.25 0  19.25 0.25 0  19.5 0.25 0  19.75 0.25 0  20 0.25 0  20.25 0.25 0  20.5 0.25 0  20.75 0.25 0  21 0.25 0  21.25 0.25 0  21.5 0.25 0  21.75 0.25 0  22 0.25 0  22.25 0.25 0  22.5 0.25 0  22.75 0.25 0  23 0.25 0  23.25 0.25 0  23.5 0.25 0  23.75 0.25 0  24 0.25 0  24.25 0.25 0  24.5 0.25 0  24.75 0.25 0  25 0.25 0  0 0.5 0  0.25 0.5 0  0.5 0.5 0  0.75 0.5 0  1 0.5 0  1.25 0.5 0  1.5 0.5 0  1.75 0.5 0  2 0.5 0  2.25 0.5 0  2.5 0.5 0  2.75 0.5 0  3 0.5 0  3.25 0.5 0  3.5 0.5 0  3.75 0.5 0  4 0.5 0  4.25 0.5 0  4.5 0.5 0  4.75 0.5 0  5 0.5 0  5.25 0.5 0  5.5 0.5 0  5.75 0.5 0  6 0.5 0  6.25 0.5 0  6.5 0.5 0  6.75 0.5 0  7 0.5 0  7.25 0.5 0  7.5 0.5 0  7.75 0.5 0  8 0.5 0  8.25 0.5 0  8.5 0.5 0  8.75 0.5 0  9 0.5 0  9.25 0.5 0  9.5 0.5 0  9.75 0.5 0  10 0.5 0  10.25 0.5 0  10.5 0.5 0  10.75 0.5 0  11 0.5 0  11.25 0.5 0  11.5 0.5 0  11.75 0.5 0  12 0.5 0  12.25 0.5 0  12.5 0.5 0  12.75 0.5 0  13 0.5 0  13.25 0.5 0  13.5 0.5 0  13.75 0.5 0  14 0.5 0  14.25 0.5 0  14.5 0.5 0  14.75 0.5 0  15 0.5 0  15.25 0.5 0  15.5 0.5 0  15.75 0.5 0  16 0.5 0  16.25 0.5 0  16.5 0.5 0  16.75 0.5 0  17 0.5 0  17.25 0.5 0  17.5 0.5 0  17.75 0.5 0  18 0.5 0  18.25 0.5 0  18.5 0.5 0  18.75 0.5 0  19 0.5 0  19.25 0.5 0  19.5 0.5 0  19.75 0.5 0  20 0.5 0  20.25 0.5 0  20.5 0.5 0  20.75 0.5 0  21 0.5 0  21.25 0.5 0  21.5 0.5 0  21.75 0.5 0  22 0.5 0  22.25 0.5 0  22.5 0.5 0  22.75 0.5 0  23 0.5 0  23.25 0.5 0  23.5 0.5 0  23.75 0.5 0  24 0.5 0  24.25 0.5 0  24.5 0.5 0  24.75 0.5 0  25 0.5 0  0 0.75 0  0.25 0.75 0  0.5 0.75 0  0.75 0.75 0  1 0.75 0  1.25 0.75 0  1.5 0.75 0  1.75 0.75 0  2 0.75 0  2.25 0.75 0  2.5 0.75 0  2.75 0.75 0  3 0.75 0  3.25 0.75 0  3.5 0.75 0  3.75 0.75 0  4 0.75 0  4.25 0.75 0  4.5 0.75 0  4.75 0.75 0  5 0.75 0  5.25 0.75 0  5.5 0.75 0  5.75 0.75 0  6 0.75 0  6.25 0.75 0  6.5 0.75 0  6.75 0.75 0  7 0.75 0  7.25 0.75 0  7.5 0.75 0  7.75 0.75 0  8 0.75 0  8.25 0.75 0  8.5 0.75 0  8.75 0.75 0  9 0.75 0  9.25 0.75 0  9.5 0.75 0  9.75 0.75 0  10 0.75 0  10.25 0.75 0  10.5 0.75 0  10.75 0.75 0  11 0.75 0  11.25 0.75 0  11.5 0.75 0  11.75 0.75 0  12 0.75 0  12.25 0.75 0  12.5 0.75 0  12.75 0.75 0  13 0.75 0  13.25 0.75 0  13.5 0.75 0  13.75 0.75 0  14 0.75 0  14.25 0.75 0  14.5 0.75 0  14.75 0.75 0  15 0.75 0  15.25 0.75 0  15.5 0.75 0  15.75 0.75 0  16 0.75 0  16.25 0.75 0  16.5 0.75 0  16.75 0.75 0  17 0.75 0  17.25 0.75 0  17.5 0.75 0  17.75 0.75 0  18 0.75 0  18.25 0.75 0  18.5 0.75 0  18.75 0.75 0  19 0.75 0  19.25 0.75 0  19.5 0.75 0  19.75 0.75 0  20 0.75 0  20.25 0.75 0  20.5 0.75 0  20.75 0.75 0  21 0.75 0  21.25 0.75 0  21.5 0.75 0  21.75 0.75 0  22 0.75 0  22.25 0.75 0  22.5 0.75 0  22.75 0.75 0  23 0.75 0  23.25 0.75 0  23.5 0.75 0  23.75 0.75 0  24 0.75 0  24.25 0.75 0  24.5 0.75 0  24.75 0.75 0  25 0.75 0  0 1 0  0.25 1 0  0.5 1 0  0.75 1 0  1 1 0  1.25 1 0  1.5 1 0  1.75 1 0  2 1 0  2.25 1 0  2.5 1 0  2.75 1 0  3 1 0  3.25 1 0  3.5 1 0  3.75 1 0  4 1 0  4.25 1 0  4.5 1 0  4.75 1 0  5 1 0  5.25 1 0  5.5 1 0  5.75 1 0  6 1 0  6.25 1 0  6.5 1 0  6.75 1 0  7 1 0  7.25 1 0  7.5 1 0  7.75 1 0  8 1 0  8.25 1 0  8.5 1 0  8.75 1 0  9 1 0  9.25 1 0  9.5 1 0  9.75 1 0  10 1 0  10.25 1 0  10.5 1 0  10.75 1 0  11 1 0  11.25 1 0  11.5 1 0  11.75 1 0  12 1 0  12.25 1 0  12.5 1 0  12.75 1 0  13 1 0  13.25 1 0  13.5 1 0  13.75 1 0  14 1 0  14.25 1 0  14.5 1 0  14.75 1 0  15 1 0  15.25 1 0  15.5 1 0  15.75 1 0  16 1 0  16.25 1 0  16.5 1 0  16.75 1 0  17 1 0  17.25 1 0  17.5 1 0  17.75 1 0  18 1 0  18.25 1 0  18.5 1 0  18.75 1 0  19 1 0  19.25 1 0  19.5 1 0  19.75 1 0  20 1 0  20.25 1 0  20.5 1 0  20.75 1 0  21 1 0  21.25 1 0  21.5 1 0  21.75 1 0  22 1 0  22.25 1 0  22.5 1 0  22.75 1 0  23 1 0  23.25 1 0  23.5 1 0  23.75 1 0  24 1 0  24.25 1 0  24.5 1 0  24.75 1 0  25 1 0  0 1.25 0  0.25 1.25 0  0.5 1.25 0  0.75 1.25 0  1 1.25 0  1.25 1.25 0  1.5 1.25 0  1.75 1.25 0  2 1.25 0  2.25 1.25 0  2.5 1.25 0  2.75 1.25 0  3 1.25 0  3.25 1.25 0  3.5 1.25 0  3.75 1.25 0  4 1.25 0  4.25 1.25 0  4.5 1.25 0  4.75 1.25 0  5 1.25 0  5.25 1.25 0  5.5 1.25 0  5.75 1.25 0  6 1.25 0  6.25 1.25 0  6.5 1.25 0  6.75 1.25 0  7 1.25 0  7.25 1.25 0  7.5 1.25 0  7.75 1.25 0  8 1.25 0  8.25 1.25 0  8.5 1.25 0  8.75 1.25 0  9 1.25 0  9.25 1.25 0  9.5 1.25 0  9.75 1.25 0  10 1.25 0  10.25 1.25 0  10.5 1.25 0  10.75 1.25 0  11 1.25 0  11.25 1.25 0  11.5 1.25 0  11.75 1.25 0  12 1.25 0  12.25 1.25 0  12.5 1.25 0  12.75 1.25 0  13 1.25 0  13.25 1.25 0  13.5 1.25 0  13.75 1.25 0  14 1.25 0  14.25 1.25 0  14.5 1.25 0  14.75 1.25 0  15 1.25 0  15.25 1.25 0  15.5 1.25 0  15.75 1.25 0  16 1.25 0  16.25 1.25 0  16.5 1.25 0  16.75 1.25 0  17 1.25 0  17.25 1.25 0  17.5 1.25 0  17.75 1.25 0  18 1.25 0  18.25 1.25 0  18.5 1.25 0  18.75 1.25 0  19 1.25 0  19.25 1.25 0  19.5 1.25 0  19.75 1.25 0  20 1.25 0  20.25 1.25 0  20.5 1.25 0  20.75 1.25 0  21 1.25 0  21.25 1.25 0  21.5 1.25 0  21.75 1.25 0  22 1.25 0  22.25 1.25 0  22.5 1.25 0  22.75 1.25 0  23 1.25 0  23.25 1.25 0  23.5 1.25 0  23.75 1.25 0  24 1.25 0  24.25 1.25 0  24.5 1.25 0  24.75 1.25 0  25 1.25 0  0 1.5 0  0.25 1.5 0  0.5 1.5 0  0.75 1.5 0  1 1.5 0  1.25 1.5 0  1.5 1.5 0  1.75 1.5 0  2 1.5 0  2.25 1.5 0  2.5 1.5 0  2.75 1.5 0  3 1.5 0  3.25 1.5 0  3.5 1.5 0  3.75 1.5 0  4 1.5 0  4.25 1.5 0  4.5 1.5 0  4.75 1.5 0  5 1.5 0  5.25 1.5 0  5.5 1.5 0  5.75 1.5 0  6 1.5 0  6.25 1.5 0  6.5 1.5 0  6.75 1.5 0  7 1.5 0  7.25 1.5 0  7.5 1.5 0  7.75 1.5 0  8 1.5 0  8.25 1.5 0  8.5 1.5 0  8.75 1.5 0  9 1.5 0  9.25 1.5 0  9.5 1.5 0  9.75 1.5 0  10 1.5 0  10.25 1.5 0  10.5 1.5 0  10.75 1.5 0  11 1.5 0  11.25 1.5 0  11.5 1.5 0  11.75 1.5 0  12 1.5 0  12.25 1.5 0  12.5 1.5 0  12.75 1.5 0  13 1.5 0  13.25 1.5 0  13.5 1.5 0  13.75 1.5 0  14 1.5 0  14.25 1.5 0  14.5 1.5 0  14.75 1.5 0  15 1.5 0  15.25 1.5 0  15.5 1.5 0  15.75 1.5 0  16 1.5 0  16.25 1.5 0  16.5 1.5 0  16.75 1.5 0  17 1.5 0  17.25 1.5 0  17.5 1.5 0  17.75 1.5 0  18 1.5 0  18.25 1.5 0  18.5 1.5 0  18.75 1.5 0  19 1.5 0  19.25 1.5 0  19.5 1.5 0  19.75 1.5 0  20 1.5 0  20.25 1.5 0  20.5 1.5 0  20.75 1.5 0  21 1.5 0  21.25 1.5 0  21.5 1.5 0  21.75 1.5 0  22 1.5 0  22.25 1.5 0  22.5 1.5 0  22.75 1.5 0  23 1.5 0  23.25 1.5 0  23.5 1.5 0  23.75 1.5 0  24 1.5 0  24.25 1.5 0  24.5 1.5 0  24.75 1.5 0  25 1.5 0  0 1.75 0  0.25 1.75 0  0.5 1.75 0  0.75 1.75 0  1 1.75 0  1.25 1.75 0  1.5 1.75 0  1.75 1.75 0  2 1.75 0  2.25 1.75 0  2.5 1.75 0  2.75 1.75 0  3 1.75 0  3.25 1.75 0  3.5 1.75 0  3.75 1.75 0  4 1.75 0  4.25 1.75 0  4.5 1.75 0  4.75 1.75 0  5 1.75 0  5.25 1.75 0  5.5 1.75 0  5.75 1.75 0  6 1.75 0  6.25 1.75 0  6.5 1.75 0  6.75 1.75 0  7 1.75 0  7.25 1.75 0  7.5 1.75 0  7.75 1.75 0  8 1.75 0  8.25 1.75 0  8.5 1.75 0  8.75 1.75 0  9 1.75 0  9.25 1.75 0  9.5 1.75 0  9.75 1.75 0  10 1.75 0  10.25 1.75 0  10.5 1.75 0  10.75 1.75 0  11 1.75 0  11.25 1.75 0  11.5 1.75 0  11.75 1.75 0  12 1.75 0  12.25 1.75 0  12.5 1.75 0  12.75 1.75 0  13 1.75 0  13.25 1.75 0  13.5 1.75 0  13.75 1.75 0  14 1.75 0  14.25 1.75 0  14.5 1.75 0  14.75 1.75 0  15 1.75 0  15.25 1.75 0  15.5 1.75 0  15.75 1.75 0  16 1.75 0  16.25 1.75 0  16.5 1.75 0  16.75 1.75 0  17 1.75 0  17.25 1.75 0  17.5 1.75 0  17.75 1.75 0  18 1.75 0  18.25 1.75 0  18.5 1.75 0  18.75 1.75 0  19 1.75 0  19.25 1.75 0  19.5 1.75 0  19.75 1.75 0  20 1.75 0  20.25 1.75 0  20.5 1.75 0  20.75 1.75 0  21 1.75 0  21.25 1.75 0  21.5 1.75 0  21.75 1.75 0  22 1.75 0  22.25 1.75 0  22.5 1.75 0  22.75 1.75 0  23 1.75 0  23.25 1.75 0  23.5 1.75 0  23.75 1.75 0  24 1.75 0  24.25 1.75 0  24.5 1.75 0  24.75 1.75 0  25 1.75 0  0 2 0  0.25 2 0  0.5 2 0  0.75 2 0  1 2 0  1.25 2 0  1.5 2 0  1.75 2 0  2 2 0  2.25 2 0  2.5 2 0  2.75 2 0  3 2 0  3.25 2 0  3.5 2 0  3.75 2 0  4 2 0  4.25 2 0  4.5 2 0  4.75 2 0  5 2 0  5.25 2 0  5.5 2 0  5.75 2 0  6 2 0  6.25 2 0  6.5 2 0  6.75 2 0  7 2 0  7.25 2 0  7.5 2 0  7.75 2 0  8 2 0  8.25 2 0  8.5 2 0  8.75 2 0  9 2 0  9.25 2 0  9.5 2 0  9.75 2 0  10 2 0  10.25 2 0  10.5 2 0  10.75 2 0  11 2 0  11.25 2 0 
[...]
<PointData  Scalars="f_26"> 
<DataArray  type="Float64"  Name="f_26"  format="ascii">2.4296730711635794e-05  2.4292342145082178e-05  2.4282476501125333e-05  2.4266711940690738e-05  2.4244991098269569e-05  2.4217388274210867e-05  2.4184061064796883e-05  2.4145246435811499e-05  2.4101268372535226e-05  2.4052547704791130e-05  2.3999610232352641e-05  2.3943090801383476e-05  2.3883731666553030e-05  2.3822374086382788e-05  2.3759942806036530e-05  2.3697423843996569e-05  2.3635836691544898e-05  2.3576202514826898e-05  2.3519510134133340e-05  2.3466681498819822e-05  2.3418538329320762e-05  2.3375771914020739e-05  2.3338918840259774e-05  2.3308346135331309e-05  2.3284248670270898e-05  2.3266658850013477e-05  2.3255464372639012e-05  2.3250426752144103e-05  2.3251193835993651e-05  2.3257303817392357e-05  2.3268183651509092e-05  2.3283148089078134e-05  2.3301405257839940e-05  2.3322071799875773e-05  2.3344197147901054e-05  2.3366794253926503e-05  2.3388873396098730e-05  2.3409476095593476e-05  2.3427706974413651e-05  2.3442762123026987e-05  2.3453953085233491e-05  2.3460725942725009e-05  2.3462675261631547e-05  2.3459552884754858e-05  2.3451271722732544e-05  2.3437904813787913e-05  2.3419679990710384e-05  2.3396970526713345e-05  2.3370282132865747e-05  2.3340236630005778e-05  2.3307552469448111e-05  2.3273021969880917e-05  2.3237484660422392e-05  2.3201795618069562e-05  2.3166787596573742e-05  2.3133226804756905e-05  2.3101765139380810e-05  2.3072896476793362e-05  2.3046929634108499e-05  2.3023992608579901e-05  2.3004078614694211e-05  2.2987133893995109e-05  2.2973173554523111e-05  2.2962399563495136e-05  2.2955287706299644e-05  2.2952609694580558e-05  2.2955366064181910e-05  2.2964629498193246e-05  2.2981334207165505e-05  2.3006077900208663e-05  2.3039004768965595e-05  2.3079802670122135e-05  2.3127796013348760e-05  2.3182081223129438e-05  2.3241651254261812e-05  2.3305480002971166e-05  2.3372564982779046e-05  2.3441942526077044e-05  2.3512691979505964e-05  2.3583939535604414e-05  2.3654865293454731e-05  2.3724712888987556e-05  2.3792799754220126e-05  2.3858526146147224e-05  2.3921381517561795e-05  2.3980947352693109e-05  2.4036896181658111e-05  2.4088987009559780e-05  2.4137057767078409e-05  2.4181015586475071e-05  2.4220825750870932e-05  2.4256500096906370e-05  2.4288085516115285e-05  2.4315653036208839e-05  2.4339287794479934e-05  2.4359080046469607e-05  2.4375117148011984e-05  2.4387476043217323e-05  2.4396214497107299e-05  2.4401354069532590e-05  2.4402824169003800e-05  2.4290791162923165e-05  2.4287350181151921e-05  2.4277735536686044e-05  2.4262066897424343e-05  2.4240409532917664e-05  2.4212869462817652e-05  2.4179614649172800e-05  2.4140886774482637e-05  2.4097012694222423e-05  2.4048415215268456e-05  2.3995621426819206e-05  2.3939266778385555e-05  2.3880093405193050e-05  2.3818941710334707e-05  2.3756734883754979e-05  2.3694456781553036e-05  2.3633124264984234e-05  2.3573755560590035e-05  2.3517336374135013e-05  2.3464785445982503e-05  2.3416921228382851e-05  2.3374431716624242e-05  2.3337850259441620e-05  2.3307540848505602e-05  2.3283695730737711e-05  2.3266345317525355e-05  2.3255376093580697e-05  2.3250549147861721e-05  2.3251512540399006e-05  2.3257805059626620e-05  2.3268854376831200e-05  2.3283975896718454e-05  2.3302378268826115e-05  2.3323178548337441e-05  2.3345426541630698e-05  2.3368135603922240e-05  2.3390316487692774e-05  2.3411011267284787e-05  2.3429325177201710e-05  2.3444454943973045e-05  2.3455712728360090e-05  2.3462545166383835e-05  2.3464547274903974e-05  2.3461471207749914e-05  2.3453230017612214e-05  2.3439896694802629e-05  2.3421698821764000e-05  2.3399009213563297e-05  2.3372332914691063e-05  2.3342290874234480e-05  2.3309600478915753e-05  2.3275052828276465e-05  2.3239486174668807e-05  2.3203754461310281e-05  2.3168689793333671e-05  2.3135058691630296e-05  2.3103514837094976e-05  2.3074555716608797e-05  2.3048495566011984e-05  2.3025469114153556e-05  2.3005476739279744e-05  2.2988471225793704e-05  2.2974472524621692e-05  2.2963684646500805e-05  2.2956581567484933e-05  2.2953928752553145e-05  2.2956716662769953e-05  2.2966006286619168e-05  2.2982721716226141e-05  2.3007454784460381e-05  2.3040348852678698e-05  2.3081094831146568e-05  2.3129021986090030e-05  2.3183231618528588e-05  2.3242720676604804e-05  2.3306466031794535e-05  2.3373467375592829e-05  2.3442762655459253e-05  2.3513432410543485e-05  2.3584603711634561e-05  2.3655457334011874e-05  2.3725237458301747e-05  2.3793261938574835e-05  2.3858931313304214e-05  2.3921735165913440e-05  2.3981254967188560e-05  2.4037163108663986e-05  2.4089218355883829e-05  2.4137258323803042e-05  2.4181189776181766e-05  2.4220977596474866e-05  2.4256633211069373e-05  2.4288203112054040e-05  2.4315757964776217e-05  2.4339382622926681e-05  2.4359167226719263e-05  2.4375199437122324e-05  2.4387557794369821e-05  2.4396306418061573e-05  2.4401493242141926e-05  2.4403166040171819e-05  2.4276288532551719e-05  2.4273099597517177e-05  2.4263688978234224e-05  2.4248177760441247e-05  2.4226669928143299e-05  2.4199296359518381e-05  2.4166239928174017e-05  2.4127752438421277e-05  2.4084168471808134e-05  2.4035916957519364e-05  2.3983529584715118e-05  2.3927644692961596e-05  2.3869005358942437e-05  2.3808450807959457e-05  2.3746900897698665e-05  2.3685334124730129e-05  2.3624760238198782e-05  2.3566188964253612e-05  2.3510596485730451e-05  2.3458891284713170e-05  2.3411881013936297e-05  2.3370242519796564e-05  2.3334498012343147e-05  2.3305001016480148e-05  2.3281934898100314e-05  2.3265323649932933e-05  2.3255050242866864e-05  2.3250874915419182e-05  2.3252446695681777e-05  2.3259306080157336e-05  2.3270882307199252e-05  2.3286491782711268e-05  2.3305343623915266e-05  2.3326555130163172e-05  2.3349176497915844e-05  2.3372221894941761e-05  2.3394703434685822e-05  2.3415665087653813e-05  2.3434214408538395e-05  2.3449550701883128e-05  2.3460988776313057e-05  2.3467977798675440e-05  2.3470115029210556e-05  2.3467154434158327e-05  2.3459010337337947e-05  2.3445756383840147e-05  2.3427620152089811e-05  2.3404973777853554e-05  2.3378320952530112e-05  2.3348280614289202e-05  2.3315567521970143e-05  2.3280969632340939e-05  2.3245321775062865e-05  2.3209474660921747e-05  2.3174258155255984e-05  2.3140438680800109e-05  2.3108673291419667e-05  2.3079467431983016e-05  2.3053148243226096e-05  2.3029867487217967e-05  2.3009644653313535e-05  2.2992450818090127e-05  2.2978320251479340e-05  2.2967464392939751e-05  2.2960355459751542e-05  2.2957746854561133e-05  2.2960607617031458e-05  2.2969971646289177e-05  2.2986736240654877e-05  2.3011472939688246e-05  2.3044315158019892e-05  2.3084954278403403e-05  2.3132727430575016e-05  2.3186747065074127e-05  2.3246021256651486e-05  2.3309536259179332e-05  2.3376299050029780e-05  2.3445353140158314e-05  2.3515783448790229e-05  2.3586720658551783e-05  2.3657348617226657e-05  2.3726914123950126e-05  2.3794737201394899e-05  2.3860220079759520e-05  2.3922853532471473e-05  2.3982219713584944e-05  2.4037991211774759e-05  2.4089926548143527e-05  2.4137862714768005e-05  2.4181705549500891e-05  2.4221418788891085e-05  2.4257012576292426e-05  2.4288532071564733e-05  2.4316046651877120e-05  2.4339640040533331e-05  2.4359401575826766e-05  2.4375418760687808e-05  2.4387771272165968e-05  2.4396526907975813e-05  2.4401740818883071e-05  2.4403460607430926e-05  2.4252839704985345e-05  2.4249747969773664e-05  2.4240494609814563e-05  2.4225168009004013e-05  2.4203877276005382e-05  2.4176766728543601e-05  2.4144032880827707e-05  2.4105939942129969e-05  2.4062833488830808e-05  2.4015151808700298e-05  2.3963433886941896e-05  2.3908322775033547e-05  2.3850563194559294e-05  2.3790992619521535e-05  2.3730525665014858e-05  2.3670132264439532e-05  2.3610810689306558e-05  2.3553556819388218e-05  2.3499331169548907e-05  2.3449025163209043e-05  2.3403428312390644e-05  2.3363198597414426e-05  2.3328839337137673e-05  2.3300686390763560e-05  2.3278908340529447e-05  2.3263518779142407e-05  2.3254395306762365e-05  2.3251297231962646e-05  2.3253875499871069e-05  2.3261673476240413e-05  2.3274122772547094e-05  2.3290541066603152e-05  2.3310137824454593e-05  2.3332030383956438e-05  2.3355269335090528e-05  2.3378870065366646e-05  2.3401846932023043e-05  2.3423247131425695e-05  2.3442182220671163e-05  2.3457855988063460e-05  2.3469587878072362e-05  2.3476831520290052e-05  2.3479188169660273e-05  2.3476415072308342e-05  2.3468428929309130e-05  2.3455304734782491e-05  2.3437270319916156e-05  2.3414696955148846e-05  2.3388086359072044e-05  2.3358054425030565e-05  2.3325311867782468e-05  2.3290641761077883e-05  2.3254873563548177e-05  2.3218852820251393e-05  2.3183405624513312e-05  2.3149297748602952e-05  2.3117190772440118e-05  2.3087601662408271e-05  2.3060876840898314e-05  2.3037194092865945e-05  2.3016602660674496e-05  2.2999102596517017e-05  2.2984751303561589e-05  2.2973772804287098e-05  2.2966637719238124e-05  2.2964081948141760e-05  2.2967042462479620e-05  2.2976511874233296e-05  2.2993345760515235e-05  2.3018082964525470e-05  2.3050839560407731e-05  2.3091305767867124e-05  2.3138829641945992e-05  2.3192540480159981e-05  2.3251463815359907e-05  2.3314600980982438e-05  2.3380970863736749e-05  2.3449626198852044e-05  2.3519659285070974e-05  2.3590206997722853e-05  2.3660458528332806e-05  2.3729665273696866e-05  2.3797151095801319e-05  2.3862321256083652e-05  2.3924668706864147e-05  2.3983776914350335e-05  2.4039318939298049e-05  2.4091053002860801e-05  2.4138815127514028e-05  2.4182509638102691e-05  2.4222098354230104e-05  2.4257589242492840e-05  2.4289025169962500e-05  2.4316473248129404e-05  2.4340015109774984e-05  2.4359738342359960e-05  2.4375729228589646e-05  2.4388066934781178e-05  2.4396819340513271e-05  2.4402040686141042e-05  2.4403770388413561e-05  2.4220453490733692e-05  2.4217426103191999e-05  2.4208320265922197e-05  2.4193207993419444e-05  2.4172198882584065e-05  2.4145446569045194e-05  2.4113160375540648e-05  2.4075618218261593e-05  2.4033178888682827e-05  2.3986292370715942e-05  2.3935506885521716e-05  2.3881471388935197e-05  2.3824932455578795e-05  2.3766724895748034e-05  2.3707756011967403e-05  2.3648983999561098e-05  2.3591391486822077e-05  2.3535955481355302e-05  2.3483615045406076e-05  2.3435238058926198e-05  2.3391588775297394e-05  2.3353298752654409e-05  2.3320844873620904e-05  2.3294538515850152e-05  2.3274528195432333e-05  2.3260813917774494e-05  2.3253266857502424e-05  2.3251645943142234e-05  2.3255605338850118e-05  2.3264692526970380e-05  2.3278342209660850e-05  2.3295873456446554e-05  2.3316495831383670e-05  2.3339326425047468e-05  2.3363416190973140e-05  2.3387782134592533e-05  2.3411441732555140e-05  2.3433446716589552e-05  2.3452914289438516e-05  2.3469054572238626e-05  2.3481193564075278e-05  2.3488791214419340e-05  2.3491454451129766e-05  2.3488945203071305e-05  2.3481183604934578e-05  2.3468246665649006e-05  2.3450362726143552e-05  2.3427902043453253e-05  2.3401363830318143e-05  2.3371360048261510e-05  2.3338596166973361e-05  2.3303848917019770e-05  2.3267940755094830e-05  2.3231710415479724e-05  2.3195978830527761e-05  2.3161510409615188e-05  2.3128971783413033e-05  2.3098893801945249e-05  2.3071646801379745e-05  2.3047441492036145e-05  2.3026365410350578e-05  2.3008456494587266e-05  2.2993802884538582e-05  2.2982645781796881e-05  2.2975454486515811e-05  2.2972942797362467e-05  2.2976006641391293e-05  2.2985585638662427e-05  2.3002481725035588e-05  2.3027191534568423e-05  2.3059808485084599e-05  2.3100020870974056e-05  2.3147190489682574e-05  2.3200468255678205e-05  2.3258902379330303e-05  2.3321514016093899e-05  2.3387337914200390e-05  2.3455439274352785e-05  2.3524920512942445e-05  2.3594927096133653e-05  2.3664655685578436e-05  2.3733364131817765e-05  2.3800381696514584e-05  2.3865117908089680e-05  2.3927068787510007e-05  2.3985819649153530e-05  2.4041044217170638e-05  2.4092500285264556e-05  2.4140022500097911e-05  2.4183513038563925e-05  2.4222930994535187e-05  2.4258281230149486e-05  2.4289603323257233e-05  2.4316961094323655e-05  2.4340433051750005e-05  2.4360103973313585e-05  2.4376057752609822e-05  2.4388371579443421e-05  2.4397111459431942e-05  2.4402328906149645e-05  2.4404058141540955e-05  2.4179303260222490e-05  2.4176338291783221e-05  2.4167392851438677e-05  2.4152534449431544e-05  2.4131875863758795e-05  2.4105580230868967e-05  2.4073870129096825e-05  2.4037038332554396e-05  2.3995458396272210e-05  2.3949593525593030e-05  2.3900002317599696e-05  2.3847340114756346e-05  2.3792354989415767e-05  2.3735877806836146e-05  2.3678806345019122e-05  2.3622083975512848e-05  2.3566673801748301e-05  2.3513529331306123e-05  2.3463562791132232e-05  2.3417612339775809e-05  2.3376410035745010e-05  2.3340553597808891e-05  2.3310486199726508e-05  2.3286488502603501e-05  2.3268684615724708e-05  2.3257058943087717e-05  2.3251476325487836e-05  2.3251696728709491e-05  2.3257379300195217e-05  2.3268076977716619e-05  2.3283228132381100e-05  2.3302153131535943e-05  2.3324061205453668e-05  2.3348068802952648e-05  2.3373227164471205e-05  2.3398555295684911e-05  2.3423074653164163e-05  2.3445842780057198e-05  2.3465984108967809e-05  2.3482716859814429e-05  2.3495375404398663e-05  2.3503427759748811e-05  2.3506488095788970e-05  2.3504324326999495e-05  2.3496860995191362e-05  2.3484177731981456e-05  2.3466503620578585e-05  2.3444207775761383e-05  2.3417786446701764e-05  2.3387846921338244e-05  2.3355088449835464e-05  2.3320280267770638e-05  2.3284236564555328e-05  2.3247787972963164e-05  2.3211749090444285e-05  2.3176882140456859e-05  2.3143858683559368e-05  2.3113224478169357e-05  2.3085376366708530e-05  2.3060562340757740e-05  2.3038914090525798e-05  2.3020513964339218e-05  2.3005486701779760e-05  2.2994094403298438e-05  2.2986805445624659e-05  2.2984308158363656e-05  2.2987450834585550e-05  2.2997111754955432e-05  2.3014031070318587e-05  2.3038657070786763e-05  2.3071057443186299e-05  2.3110918590892026e-05  2.3157618438600046e-05  2.3210333161402759e-05  2.3268137590661397e-05  2.3330076369705256e-05  2.3395203301276677e-05  2.3462598812145770e-05  2.3531377874575020e-05  2.3600696736992378e-05  2.3669761492618385e-05  2.3737838155942254e-05  2.3804262812777018e-05  2.3868450364962851e-05  2.3929900669129427e-05  2.3988201309828258e-05  2.4043026763450753e-05  2.4094134180039323e-05  2.4141356350177151e-05  2.4184592607873408e-05  2.4223798464638667e-05  2.4258974711784389e-05  2.4290156608542797e-05  2.4317403629121430e-05  2.4340790099392173e-05  2.4360396930309808e-05  2.4376304556514639e-05  2.4388587109258597e-05  2.4397307772068614e-05  2.4402515150549210e-05  2.4404240326427350e-05  2.4129684607734386e-05  2.4126789446995970e-05  2.4118029322356387e-05  2.4103473345930851e-05  2.4083240645512828e-05  2.4057505338048733e-05  2.4026504252901980e-05  2.3990545994817194e-05  2.3950019829721980e-05  2.3905402926252207e-05  2.3857264588674909e-05  2.3806266302836430e-05  2.3753156723752971e-05  2.3698761157453763e-05  2.3643965571027712e-05  2.3589695598564291e-05  2.3536891289402447e-05  2.3486478440305422e-05  2.3439337407346082e-05  2.3396270635043707e-05  2.3357971098179697e-05  2.3324995339299790e-05  2.3297745920458309e-05  2.3276467408020226e-05  2.3261256503891081e-05  2.3252081581342915e-05  2.3248802706159332e-05  2.3251183344038127e-05  2.3258889899024174e-05  2.3271482160569583e-05  2.3288402547021807e-05  2.3308972363978301e-05  2.3332399863805261e-05  2.3357800335942793e-05  2.3384225177575494e-05  2.3410695753741462e-05  2.3436238333736221e-05  2.3459917495208982e-05  2.3480866399581194e-05  2.3498313016632594e-05  2.3511601772608031e-05  2.3520210352283327e-05  2.3523761588859202e-05  2.3522030546770350e-05  2.3514947028000029e-05  2.3502593800187182e-05  2.3485200860561747e-05  2.3463136034771713e-05  2.3436892186646723e-05  2.3407071291877158e-05  2.3374365589450108e-05  2.3339535935584114e-05  2.3303387323441746e-05  2.3266741343890651e-05  2.3230405336469138e-05  2.3195138488753459e-05  2.3161616645468405e-05  2.3130400279328770e-05  2.3101913342636420e-05  2.3076442831301993e-05  2.3054167510306783e-05  2.3035217883340224e-05  2.3019758996567091e-05  2.3008076400479832e-05  2.3000638015499743e-05  2.2998104779957757e-05  2.3001273540520163e-05  2.3010956648561879e-05  2.3027828364409850e-05  2.3052285948832615e-05  2.3084370457449647e-05  2.3123767125906969e-05  2.3169871882704402e-05  2.3221888656546478e-05  2.3278921578021357e-05  2.3340041388285418e-05  2.3404323392824782e-05  2.3470865528221303e-05  2.3538797456421323e-05  2.3607288183475164e-05  2.3675555018022104e-05  2.3742873687432565e-05  2.3808588373166994e-05  2.3872120310411608e-05  2.3932973819735087e-05  2.3990739049713784e-05  2.4045091203260748e-05  2.4095786471763530e-05  2.4142655227372156e-05  2.4185593200491650e-05  2.4224551412735053e-05  2.4259525580311409e-05  2.4290545588082921e-05  2.4317665494707208e-05  2.4340954390033438e-05  2.4360488302976894e-05  2.4376343257647775e-05  2.4388589495352618e-05  2.4397286812249908e-05  2.4402480901919941e-05  2.4404200562022833e-05  2.4072017025178965e-05  2.4069202447441413e-05  2.4060659176535493e-05  2.4046460946089142e-05  2.4026735458727695e-05  2.4001669172564744e-05  2.3971514005071048e-05  2.3936594927093587e-05  2.3897317190145350e-05  2.3854171878481976e-05  2.3807738548869001e-05  2.3758683910403816e-05  2.3707755803439919e-05  2.3655772129972020e-05  2.3603604794774558e-05  2.3552159037028553e-05  2.3502348692287687e-05  2.3455067965642878e-05  2.3411160454507848e-05  2.3371386818154426e-05  2.3336393883473965e-05  2.3306689702684921e-05  2.3282629875478291e-05  2.3264418749093173e-05  2.3252124449095645e-05  2.3245700908732955e-05  2.3245006720182294e-05  2.3249812455693268e-05  2.3259794532385050e-05  2.3274520968991709e-05  2.3293438339073628e-05  2.3315868219449696e-05  2.3341017012174244e-05  2.3367998203262285e-05  2.3395863160259341e-05  2.3423635934549990e-05  2.3450348396092714e-05  2.3475073302367331e-05  2.3496953926501030e-05  2.3515229489239746e-05  2.3529255978863118e-05  2.3538522161623422e-05  2.3542660768229340e-05  2.3541455000401770e-05  2.3534840614905306e-05  2.3522903895650046e-05  2.3505875823672083e-05  2.3484122723811098e-05  2.3458133632742687e-05  2.3428504609833238e-05  2.3395920191434747e-05  2.3361132143514313e-05  2.3324935575623770e-05  2.3288142372521566e-05  2.3251551922583667e-05  2.3215919568530958e-05  2.3181924449132632e-05  2.3150140620164994e-05  2.3121018081131709e-05  2.3094882187260328e-05  2.3071958873911719e-05  2.3052427696108624e-05  2.3036495359662002e-05  2.3024472041191856e-05  2.3016825627884376e-05  2.3014189182767952e-05  2.3017307087003484e-05  2.3026924856622326e-05  2.3043650580052497e-05  2.3067830955067258e-05  2.3099481420440598e-05  2.3138287332248778e-05  2.3183664021628984e-05  2.3234844648068998e-05  2.3290964221289132e-05  2.3351121279191849e-05  2.3414414433305534e-05  2.3479960992698365e-05  2.3546907162467667e-05  2.3614436471520291e-05  2.3681779047468668e-05  2.3748221711717423e-05  2.3813117851970774e-05  2.3875895842348559e-05  2.3936064950143844e-05  2.3993218048452333e-05  2.4047030922839612e-05  2.4097258390187285e-05  2.4143727759095546e-05  2.4186330330590936e-05  2.4225011680310293e-05  2.4259761411624447e-05  2.4290602960056111e-05  2.4317583895351155e-05  2.4340767033113698e-05  2.4360222548343202e-05  2.4376021185535129e-05  2.4388228584966467e-05  2.4396900690341773e-05  2.4402080170375548e-05  2.4403793789298483e-05  2.4006855392100736e-05  2.4004133445630931e-05  2.3995842195171993e-05  2.3982061450901864e-05  2.3962928709178508e-05  2.3938643508371705e-05  2.3909473136658640e-05  2.3875758824482638e-05  2.3837921345596854e-05  2.3796464883930133e-05  2.3751978087105316e-05  2.3705131412458343e-05  2.3656670157086212e-05  2.3607402900000258e-05  2.3558185391055488e-05  2.3509900113539833e-05  2.3463431803528032e-05  2.3419639263873676e-05  2.3379324201162468e-05  2.3343198927404402e-05  2.3311856615707510e-05  2.3285749558698396e