<?xml version="1.0"?>
<VTKFile type="UnstructuredGrid"  version="0.1"  >
<UnstructuredGrid>
<Piece  NumberOfPoints="10201" NumberOfCells="20000">
<Points>
<DataArray  type="Float64"  NumberOfComponents="3"  format="ascii">0 0 0  0.25 0 0  0.5 0 0  0.75 0 0  1 0 0  1.25 0 0  1.5 0 0  1.75 0 0  2 0 0  2.25 0 0  2.5 0 0  2.75 0 0  3 0 0  3.25 0 0  3.5 0 0  3.75 0 0  4 0 0  4.25 0 0  4.5 0 0  4.75 0 0  5 0 0  5.25 0 0  5.5 0 0  5.75 0 0  6 0 0  6.25 0 0  6.5 0 0  6.75 0 0  7 0 0  7.25 0 0  7.5 0 0  7.75 0 0  8 0 0  8.25 0 0  8.5 0 0  8.75 0 0  9 0 0  9.25 0 0  9.5 0 0  9.75 0 0  10 0 0  10.25 0 0  10.5 0 0  10.75 0 0  11 0 0  11.25 0 0  11.5 0 0  11.75 0 0  12 0 0  12.25 0 0  12.5 0 0  12.75 0 0  13 0 0  13.25 0 0  13.5 0 0  13.75 0 0  14 0 0  14.25 0 0  14.5 0 0  14.75 0 0  15 0 0  15.25 0 0  15.5 0 0  15.75 0 0  16 0 0  16.25 0 0  16.5 0 0  16.75 0 0  17 0 0  17.25 0 0  17.5 0 0  17.75 0 0  18 0 0  18.25 0 0  18.5 0 0  18.75 0 0  19 0 0  19.25 0 0  19.5 0 0  19.75 0 0  20 0 0  20.25 0 0  20.5 0 0  20.75 0 0  21 0 0  21.25 0 0  21.5 0 0  21.75 0 0  22 0 0  22.25 0 0  22.5 0 0  22.75 0 0  23 0 0  23.25 0 0  23.5 0 0  23.75 0 0  24 0 0  24.25 0 0  24.5 0 0  24.75 0 0  25 0 0  0 0.25 0  0.25 0.25 0  0.5 0.25 0  0.75 0.25 0  1 0.25 0  1.25 0.25 0  1.5 0.25 0  1.75 0.25 0  2 0.25 0  2.25 0.25 0  2.5 0.25 0  2.75 0.25 0  3 0.25 0  3.25 0.25 0  3.5 0.25 0  3.75 0.25 0  4 0.25 0  4.25 0.25 0  4.5 0.25 0  4.75 0.25 0  5 0.25 0  5.25 0.25 0  5.5 0.25 0  5.75 0.25 0  6 0.25 0  6.25 0.25 0  6.5 0.25 0  6.75 0.25 0  7 0.25 0  7.25 0.25 0  7.5 0.25 0  7.75 0.25 0  8 0.25 0  8.25 0.25 0  8.5 0.25 0  8.75 0.25 0  9 0.25 0  9.25 0.25 0  9.5 0.25 0  9.75 0.25 0  10 0.25 0  10.25 0.25 0  10.5 0.25 0  10.75 0.25 0  11 0.25 0  11.25 0.25 0  11.5 0.25 0  11.75 0.25 0  12 0.25 0  12.25 0.25 0  12.5 0.25 0  12.75 0.25 0  13 0.25 0  13.25 0.25 0  13.5 0.25 0  13.75 0.25 0  14 0.25 0  14.25 0.25 0  14.5 0.25 0  14.75 0.25 0  15 0.25 0  15.25 0.25 0  15.5 0.25 0  15.75 0.25 0  16 0.25 0  16.25 0.25 0  16.5 0.25 0  16.75 0.25 0  17 0.25 0  17.25 0.25 0  17.5 0.25 0  17.75 0.25 0  18 0.25 0  18.25 0.25 0  18.5 0.25 0  18.75 0.25 0  19 0.25 0  19.25 0.25 0  19.5 0.25 0  19.75 0.25 0  20 0.25 0  20.25 0.25 0  20.5 0.25 0  20.75 0.25 0  21 0.25 0  21.25 0.25 0  21.5 0.25 0  21.75 0.25 0  22 0.25 0  22.25 0.25 0  22.5 0.25 0  22.75 0.25 0  23 0.25 0  23.25 0.25 0  23.5 0.25 0  23.75 0.25 0  24 0.25 0  24.25 0.25 0  24.5 0.25 0  24.75 0.25 0  25 0.25 0  0 0.5 0  0.25 0.5 0  0.5 0.5 0  0.75 0.5 0  1 0.5 0  1.25 0.5 0  1.5 0.5 0  1.75 0.5 0  2 0.5 0  2.25 0.5 0  2.5 0.5 0  2.75 0.5 0  3 0.5 0  3.25 0.5 0  3.5 0.5 0  3.75 0.5 0  4 0.5 0  4.25 0.5 0  4.5 0.5 0  4.75 0.5 0  5 0.5 0  5.25 0.5 0  5.5 0.5 0  5.75 0.5 0  6 0.5 0  6.25 0.5 0  6.5 0.5 0  6.75 0.5 0  7 0.5 0  7.25 0.5 0  7.5 0.5 0  7.75 0.5 0  8 0.5 0  8.25 0.5 0  8.5 0.5 0  8.75 0.5 0  9 0.5 0  9.25 0.5 0  9.5 0.5 0  9.75 0.5 0  10 0.5 0  10.25 0.5 0  10.5 0.5 0  10.75 0.5 0  11 0.5 0  11.25 0.5 0  11.5 0.5 0  11.75 0.5 0  12 0.5 0  12.25 0.5 0  12.5 0.5 0  12.75 0.5 0  13 0.5 0  13.25 0.5 0  13.5 0.5 0  13.75 0.5 0  14 0.5 0  14.25 0.5 0  14.5 0.5 0  14.75 0.5 0  15 0.5 0  15.25 0.5 0  15.5 0.5 0  15.75 0.5 0  16 0.5 0  16.25 0.5 0  16.5 0.5 0  16.75 0.5 0  17 0.5 0  17.25 0.5 0  17.5 0.5 0  17.75 0.5 0  18 0.5 0  18.25 0.5 0  18.5 0.5 0  18.75 0.5 0  19 0.5 0  19.25 0.5 0  19.5 0.5 0  19.75 0.5 0  20 0.5 0  20.25 0.5 0  20.5 0.5 0  20.75 0.5 0  21 0.5 0  21.25 0.5 0  21.5 0.5 0  21.75 0.5 0  22 0.5 0  22.25 0.5 0  22.5 0.5 0  22.75 0.5 0  23 0.5 0  23.25 0.5 0  23.5 0.5 0  23.75 0.5 0  24 0.5 0  24.25 0.5 0  24.5 0.5 0  24.75 0.5 0  25 0.5 0  0 0.75 0  0.25 0.75 0  0.5 0.75 0  0.75 0.75 0  1 0.75 0  1.25 0.75 0  1.5 0.75 0  1.75 0.75 0  2 0.75 0  2.25 0.75 0  2.5 0.75 0  2.75 0.75 0  3 0.75 0  3.25 0.75 0  3.5 0.75 0  3.75 0.75 0  4 0.75 0  4.25 0.75 0  4.5 0.75 0  4.75 0.75 0  5 0.75 0  5.25 0.75 0  5.5 0.75 0  5.75 0.75 0  6 0.75 0  6.25 0.75 0  6.5 0.75 0  6.75 0.75 0  7 0.75 0  7.25 0.75 0  7.5 0.75 0  7.75 0.75 0  8 0.75 0  8.25 0.75 0  8.5 0.75 0  8.75 0.75 0  9 0.75 0  9.25 0.75 0  9.5 0.75 0  9.75 0.75 0  10 0.75 0  10.25 0.75 0  10.5 0.75 0  10.75 0.75 0  11 0.75 0  11.25 0.75 0  11.5 0.75 0  11.75 0.75 0  12 0.75 0  12.25 0.75 0  12.5 0.75 0  12.75 0.75 0  13 0.75 0  13.25 0.75 0  13.5 0.75 0  13.75 0.75 0  14 0.75 0  14.25 0.75 0  14.5 0.75 0  14.75 0.75 0  15 0.75 0  15.25 0.75 0  15.5 0.75 0  15.75 0.75 0  16 0.75 0  16.25 0.75 0  16.5 0.75 0  16.75 0.75 0  17 0.75 0  17.25 0.75 0  17.5 0.75 0  17.75 0.75 0  18 0.75 0  18.25 0.75 0  18.5 0.75 0  18.75 0.75 0  19 0.75 0  19.25 0.75 0  19.5 0.75 0  19.75 0.75 0  20 0.75 0  20.25 0.75 0  20.5 0.75 0  20.75 0.75 0  21 0.75 0  21.25 0.75 0  21.5 0.75 0  21.75 0.75 0  22 0.75 0  22.25 0.75 0  22.5 0.75 0  22.75 0.75 0  23 0.75 0  23.25 0.75 0  23.5 0.75 0  23.75 0.75 0  24 0.75 0  24.25 0.75 0  24.5 0.75 0  24.75 0.75 0  25 0.75 0  0 1 0  0.25 1 0  0.5 1 0  0.75 1 0  1 1 0  1.25 1 0  1.5 1 0  1.75 1 0  2 1 0  2.25 1 0  2.5 1 0  2.75 1 0  3 1 0  3.25 1 0  3.5 1 0  3.75 1 0  4 1 0  4.25 1 0  4.5 1 0  4.75 1 0  5 1 0  5.25 1 0  5.5 1 0  5.75 1 0  6 1 0  6.25 1 0  6.5 1 0  6.75 1 0  7 1 0  7.25 1 0  7.5 1 0  7.75 1 0  8 1 0  8.25 1 0  8.5 1 0  8.75 1 0  9 1 0  9.25 1 0  9.5 1 0  9.75 1 0  10 1 0  10.25 1 0  10.5 1 0  10.75 1 0  11 1 0  11.25 1 0  11.5 1 0  11.75 1 0  12 1 0  12.25 1 0  12.5 1 0  12.75 1 0  13 1 0  13.25 1 0  13.5 1 0  13.75 1 0  14 1 0  14.25 1 0  14.5 1 0  14.75 1 0  15 1 0  15.25 1 0  15.5 1 0  15.75 1 0  16 1 0  16.25 1 0  16.5 1 0  16.75 1 0  17 1 0  17.25 1 0  17.5 1 0  17.75 1 0  18 1 0  18.25 1 0  18.5 1 0  18.75 1 0  19 1 0  19.25 1 0  19.5 1 0  19.75 1 0  20 1 0  20.25 1 0  20.5 1 0  20.75 1 0  21 1 0  21.25 1 0  21.5 1 0  21.75 1 0  22 1 0  22.25 1 0  22.5 1 0  22.75 1 0  23 1 0  23.25 1 0  23.5 1 0  23.75 1 0  24 1 0  24.25 1 0  24.5 1 0  24.75 1 0  25 1 0  0 1.25 0  0.25 1.25 0  0.5 1.25 0  0.75 1.25 0  1 1.25 0  1.25 1.25 0  1.5 1.25 0  1.75 1.25 0  2 1.25 0  2.25 1.25 0  2.5 1.25 0  2.75 1.25 0  3 1.25 0  3.25 1.25 0  3.5 1.25 0  3.75 1.25 0  4 1.25 0  4.25 1.25 0  4.5 1.25 0  4.75 1.25 0  5 1.25 0  5.25 1.25 0  5.5 1.25 0  5.75 1.25 0  6 1.25 0  6.25 1.25 0  6.5 1.25 0  6.75 1.25 0  7 1.25 0  7.25 1.25 0  7.5 1.25 0  7.75 1.25 0  8 1.25 0  8.25 1.25 0  8.5 1.25 0  8.75 1.25 0  9 1.25 0  9.25 1.25 0  9.5 1.25 0  9.75 1.25 0  10 1.25 0  10.25 1.25 0  10.5 1.25 0  10.75 1.25 0  11 1.25 0  11.25 1.25 0  11.5 1.25 0  11.75 1.25 0  12 1.25 0  12.25 1.25 0  12.5 1.25 0  12.75 1.25 0  13 1.25 0  13.25 1.25 0  13.5 1.25 0  13.75 1.25 0  14 1.25 0  14.25 1.25 0  14.5 1.25 0  14.75 1.25 0  15 1.25 0  15.25 1.25 0  15.5 1.25 0  15.75 1.25 0  16 1.25 0  16.25 1.25 0  16.5 1.25 0  16.75 1.25 0  17 1.25 0  17.25 1.25 0  17.5 1.25 0  17.75 1.25 0  18 1.25 0  18.25 1.25 0  18.5 1.25 0  18.75 1.25 0  19 1.25 0  19.25 1.25 0  19.5 1.25 0  19.75 1.25 0  20 1.25 0  20.25 1.25 0  20.5 1.25 0  20.75 1.25 0  21 1.25 0  21.25 1.25 0  21.5 1.25 0  21.75 1.25 0  22 1.25 0  22.25 1.25 0  22.5 1.25 0  22.75 1.25 0  23 1.25 0  23.25 1.25 0  23.5 1.25 0  23.75 1.25 0  24 1.25 0  24.25 1.25 0  24.5 1.25 0  24.75 1.25 0  25 1.25 0  0 1.5 0  0.25 1.5 0  0.5 1.5 0  0.75 1.5 0  1 1.5 0  1.25 1.5 0  1.5 1.5 0  1.75 1.5 0  2 1.5 0  2.25 1.5 0  2.5 1.5 0  2.75 1.5 0  3 1.5 0  3.25 1.5 0  3.5 1.5 0  3.75 1.5 0  4 1.5 0  4.25 1.5 0  4.5 1.5 0  4.75 1.5 0  5 1.5 0  5.25 1.5 0  5.5 1.5 0  5.75 1.5 0  6 1.5 0  6.25 1.5 0  6.5 1.5 0  6.75 1.5 0  7 1.5 0  7.25 1.5 0  7.5 1.5 0  7.75 1.5 0  8 1.5 0  8.25 1.5 0  8.5 1.5 0  8.75 1.5 0  9 1.5 0  9.25 1.5 0  9.5 1.5 0  9.75 1.5 0  10 1.5 0  10.25 1.5 0  10.5 1.5 0  10.75 1.5 0  11 1.5 0  11.25 1.5 0  11.5 1.5 0  11.75 1.5 0  12 1.5 0  12.25 1.5 0  12.5 1.5 0  12.75 1.5 0  13 1.5 0  13.25 1.5 0  13.5 1.5 0  13.75 1.5 0  14 1.5 0  14.25 1.5 0  14.5 1.5 0  14.75 1.5 0  15 1.5 0  15.25 1.5 0  15.5 1.5 0  15.75 1.5 0  16 1.5 0  16.25 1.5 0  16.5 1.5 0  16.75 1.5 0  17 1.5 0  17.25 1.5 0  17.5 1.5 0  17.75 1.5 0  18 1.5 0  18.25 1.5 0  18.5 1.5 0  18.75 1.5 0  19 1.5 0  19.25 1.5 0  19.5 1.5 0  19.75 1.5 0  20 1.5 0  20.25 1.5 0  20.5 1.5 0  20.75 1.5 0  21 1.5 0  21.25 1.5 0  21.5 1.5 0  21.75 1.5 0  22 1.5 0  22.25 1.5 0  22.5 1.5 0  22.75 1.5 0  23 1.5 0  23.25 1.5 0  23.5 1.5 0  23.75 1.5 0  24 1.5 0  24.25 1.5 0  24.5 1.5 0  24.75 1.5 0  25 1.5 0  0 1.75 0  0.25 1.75 0  0.5 1.75 0  0.75 1.75 0  1 1.75 0  1.25 1.75 0  1.5 1.75 0  1.75 1.75 0  2 1.75 0  2.25 1.75 0  2.5 1.75 0  2.75 1.75 0  3 1.75 0  3.25 1.75 0  3.5 1.75 0  3.75 1.75 0  4 1.75 0  4.25 1.75 0  4.5 1.75 0  4.75 1.75 0  5 1.75 0  5.25 1.75 0  5.5 1.75 0  5.75 1.75 0  6 1.75 0  6.25 1.75 0  6.5 1.75 0  6.75 1.75 0  7 1.75 0  7.25 1.75 0  7.5 1.75 0  7.75 1.75 0  8 1.75 0  8.25 1.75 0  8.5 1.75 0  8.75 1.75 0  9 1.75 0  9.25 1.75 0  9.5 1.75 0  9.75 1.75 0  10 1.75 0  10.25 1.75 0  10.5 1.75 0  10.75 1.75 0  11 1.75 0  11.25 1.75 0  11.5 1.75 0  11.75 1.75 0  12 1.75 0  12.25 1.75 0  12.5 1.75 0  12.75 1.75 0  13 1.75 0  13.25 1.75 0  13.5 1.75 0  13.75 1.75 0  14 1.75 0  14.25 1.75 0  14.5 1.75 0  14.75 1.75 0  15 1.75 0  15.25 1.75 0  15.5 1.75 0  15.75 1.75 0  16 1.75 0  16.25 1.75 0  16.5 1.75 0  16.75 1.75 0  17 1.75 0  17.25 1.75 0  17.5 1.75 0  17.75 1.75 0  18 1.75 0  18.25 1.75 0  18.5 1.75 0  18.75 1.75 0  19 1.75 0  19.25 1.75 0  19.5 1.75 0  19.75 1.75 0  20 1.75 0  20.25 1.75 0  20.5 1.75 0  20.75 1.75 0  21 1.75 0  21.25 1.75 0  21.5 1.75 0  21.75 1.75 0  22 1.75 0  22.25 1.75 0  22.5 1.75 0  22.75 1.75 0  23 1.75 0  23.25 1.75 0  23.5 1.75 0  23.75 1.75 0  24 1.75 0  24.25 1.75 0  24.5 1.75 0  24.75 1.75 0  25 1.75 0  0 2 0  0.25 2 0  0.5 2 0  0.75 2 0  1 2 0  1.25 2 0  1.5 2 0  1.75 2 0  2 2 0  2.25 2 0  2.5 2 0  2.75 2 0  3 2 0  3.25 2 0  3.5 2 0  3.75 2 0  4 2 0  4.25 2 0  4.5 2 0  4.75 2 0  5 2 0  5.25 2 0  5.5 2 0  5.75 2 0  6 2 0  6.25 2 0  6.5 2 0  6.75 2 0  7 2 0  7.25 2 0  7.5 2 0  7.75 2 0  8 2 0  8.25 2 0  8.5 2 0  8.75 2 0  9 2 0  9.25 2 0  9.5 2 0  9.75 2 0  10 2 0  10.25 2 0  10.5 2 0  10.75 2 0  11 2 0  11.25 2 0 
[...]
<PointData  Scalars="f_26"> 
<DataArray  type="Float64"  Name="f_26"  format="ascii">2.4797381698042666e-05  2.4790838017760038e-05  2.4776197304731097e-05  2.4752732017464751e-05  2.4720222644740291e-05  2.4678612776647221e-05  2.4627949327459447e-05  2.4568394393266373e-05  2.4500257908136656e-05  2.4424035161878206e-05  2.4340440736570145e-05  2.4250432025186835e-05  2.4155216383930175e-05  2.4056237666526645e-05  2.3955140877896995e-05  2.3853717891263217e-05  2.3753841932377532e-05  2.3657402220322682e-05  2.3566249655044868e-05  2.3482155921272638e-05  2.3406770878217809e-05  2.3341545203924063e-05  2.3287589602929762e-05  2.3245488957620532e-05  2.3215160370263693e-05  2.3195868341201448e-05  2.3186434941831115e-05  2.3185554687975306e-05  2.3192057330054049e-05  2.3205010395984995e-05  2.3223660328870140e-05  2.3247288973524505e-05  2.3275074653918108e-05  2.3306012897146411e-05  2.3338907468988692e-05  2.3372413216966821e-05  2.3405104329116859e-05  2.3435547588333559e-05  2.3462369774720653e-05  2.3484315442096208e-05  2.3500294699821680e-05  2.3509421634800788e-05  2.3511044060998186e-05  2.3504765183221754e-05  2.3490457758308950e-05  2.3468271464304282e-05  2.3438634468445011e-05  2.3402250629632866e-05  2.3360094197880202e-05  2.3313403549678475e-05  2.3263672729561813e-05  2.3212631793794789e-05  2.3162192838605770e-05  2.3114323824200831e-05  2.3070816365016851e-05  2.3032963206113867e-05  2.3001252466938267e-05  2.2975244085795181e-05  2.2953722490285333e-05  2.2935044590345108e-05  2.2917492471273133e-05  2.2899495760879206e-05  2.2879721655497688e-05  2.2857124621243570e-05  2.2831100863797063e-05  2.2801957874994079e-05  2.2771907737754622e-05  2.2746300006564752e-05  2.2733635226220533e-05  2.2742805735186996e-05  2.2778903951284663e-05  2.2841347935766001e-05  2.2925634714346807e-05  2.3026327440829397e-05  2.3138845103807546e-05  2.3259742267008619e-05  2.3386308573589101e-05  2.3516166606651896e-05  2.3647079901094183e-05  2.3776925739870114e-05  2.3903746826548657e-05  2.4025824762134678e-05  2.4141743019118483e-05  2.4250423508936365e-05  2.4351132495463614e-05  2.4443459203536727e-05  2.4527274506593448e-05  2.4602678276590793e-05  2.4669943212358875e-05  2.4729461122165439e-05  2.4781695478875223e-05  2.4827142105764433e-05  2.4866298346085117e-05  2.4899640076559189e-05  2.4927605375936599e-05  2.4950583424232194e-05  2.4968907113840672e-05  2.4982847600343359e-05  2.4992607706766129e-05  2.4998304970199671e-05  2.4999906621411343e-05  2.4788232376171372e-05  2.4783104701862746e-05  2.4768805189316478e-05  2.4745428987879322e-05  2.4712944183981498e-05  2.4671344939342184e-05  2.4620697166367999e-05  2.4561174048039335e-05  2.4493094241041949e-05  2.4416960544726537e-05  2.4333493790857178e-05  2.4243655982466197e-05  2.4148657048363220e-05  2.4049941129061702e-05  2.3949151236425951e-05  2.3848075280310803e-05  2.3748581146784175e-05  2.3652552119389158e-05  2.3561833381994867e-05  2.3478191771961573e-05  2.3403273214982172e-05  2.3338524328048284e-05  2.3285049740562958e-05  2.3243424567333819e-05  2.3213552386637194e-05  2.3194682987116585e-05  2.3185627181122201e-05  2.3185075846500249e-05  2.3191863652014019e-05  2.3205068819819840e-05  2.3223949816302403e-05  2.3247798233516530e-05  2.3275798286697884e-05  2.3306947741706064e-05  2.3340050080851829e-05  2.3373758614677219e-05  2.3406645698673758e-05  2.3437276514990107e-05  2.3464276651234423e-05  2.3486389843388370e-05  2.3502525630612867e-05  2.3511797623557493e-05  2.3513553100077267e-05  2.3507394520005674e-05  2.3493193537794576e-05  2.3471098211742002e-05  2.3441534375118792e-05  2.3405202561118941e-05  2.3363072296471195e-05  2.3316375313758365e-05  2.3266596669336535e-05  2.3215455406157155e-05  2.3164852802321837e-05  2.3116751373797128e-05  2.3072949888832293e-05  2.3034765274410753e-05  2.3002721795133145e-05  2.2976412444501317e-05  2.2954637159363039e-05  2.2935748770185828e-05  2.2918015413881485e-05  2.2899854679737514e-05  2.2879932127312330e-05  2.2857218486151881e-05  2.2831153477101080e-05  2.2802117726079993e-05  2.2772389689984313e-05  2.2747289074459148e-05  2.2735146693265799e-05  2.2744663734321093e-05  2.2780875925461983e-05  2.2843272664576628e-05  2.2927440594001325e-05  2.3027991590865568e-05  2.3140360073775055e-05  2.3261104514865515e-05  2.3387518052993199e-05  2.3517227631873876e-05  2.3648000139080497e-05  2.3777714951562030e-05  2.3904416150799900e-05  2.4026386060476668e-05  2.4142208200837999e-05  2.4250803991153611e-05  2.4351438873853899e-05  2.4443701113270406e-05  2.4527460611416773e-05  2.4602816322980051e-05  2.4670040103649357e-05  2.4729522989055986e-05  2.4781727739684844e-05  2.4827149520139567e-05  2.4866285071165636e-05  2.4899609738867029e-05  2.4927561182886151e-05  2.4950528376316719e-05  2.4968844516162394e-05  2.4982782623220257e-05  2.4992553140986716e-05  2.4998305461523107e-05  2.5000150088233852e-05  2.4765718039642011e-05  2.4760928867107813e-05  2.4746839202459633e-05  2.4723549708993721e-05  2.4691091814342670e-05  2.4649504242688593e-05  2.4598884666607989e-05  2.4539432806460335e-05  2.4471491799484119e-05  2.4395587354566404e-05  2.4312460802572502e-05  2.4223090813712912e-05  2.4128698633615274e-05  2.4030733161022333e-05  2.3930835083343692e-05  2.3830783380798802e-05  2.3732432066784534e-05  2.3637648317544111e-05  2.3548261978618407e-05  2.3466027092534279e-05  2.3392577824517836e-05  2.3329344095554821e-05  2.3277400750172414e-05  2.3237276160078479e-05  2.3208817072197128e-05  2.3191223342933349e-05  2.3183280287551295e-05  2.3183684776269534e-05  2.3191302300668634e-05  2.3205252110190701e-05  2.3224829808489815e-05  2.3249352038899531e-05  2.3278014477446954e-05  2.3309815779503723e-05  2.3343554358827214e-05  2.3377876529183125e-05  2.3411348249937988e-05  2.3442529998708078e-05  2.3470044485385902e-05  2.3492634051009858e-05  2.3509207805749738e-05  2.3518879355188466e-05  2.3520995882639007e-05  2.3515159190460961e-05  2.3501239269071726e-05  2.3479381059448139e-05  2.3450005308649452e-05  2.3413804810946068e-05  2.3371737754939967e-05  2.3325019765086409e-05  2.3275114071054865e-05  2.3223712695010847e-05  2.3172688921156062e-05  2.3123986446063457e-05  2.3079409673366567e-05  2.3040318513517217e-05  2.3007315367342777e-05  2.2980082982840075e-05  2.2957489897419923e-05  2.2937917168811250e-05  2.2919625573158669e-05  2.2901009249940355e-05  2.2880714900239563e-05  2.2857716388829502e-05  2.2831495472191083e-05  2.2802527811519859e-05  2.2773223435247128e-05  2.2748975608906334e-05  2.2737993240962292e-05  2.2748659025066831e-05  2.2785699146170638e-05  2.2848491253606640e-05  2.2932694597079977e-05  2.3033052835286860e-05  2.3145104760643475e-05  2.3265469092889354e-05  2.3391470072079454e-05  2.3520752423589643e-05  2.3651095759703557e-05  2.3780390108275154e-05  2.3906688799140850e-05  2.4028281818856548e-05  2.4143758426014990e-05  2.4252043680171541e-05  2.4352404633696629e-05  2.4444429392405169e-05  2.4527986303688093e-05  2.4603171776096583e-05  2.4670254507826373e-05  2.4729622088879731e-05  2.4781733800231379e-05  2.4827081481114354e-05  2.4866158835476400e-05  2.4899438562574745e-05  2.4927356165151835e-05  2.4950299104572822e-05  2.4968600038674044e-05  2.4982533162794102e-05  2.4992313294524943e-05  2.4998098647253994e-05  2.4999999981489665e-05  2.4728984598307953e-05  2.4724283345602121e-05  2.4710281406415648e-05  2.4687034939213573e-05  2.4654591515502078e-05  2.4613022053090267e-05  2.4562460189565850e-05  2.4503142888209927e-05  2.4435450831743108e-05  2.4359946087371072e-05  2.4277402949010786e-05  2.4188827016901840e-05  2.4095457829672308e-05  2.3998751929322443e-05  2.3900346168204634e-05  2.3802005107936189e-05  2.3705560682831375e-05  2.3612854957981724e-05  2.3525694496773024e-05  2.3445814119346902e-05  2.3374828783592407e-05  2.3314137471265261e-05  2.3264758229183371e-05  2.3227132591678749e-05  2.3201006557616578e-05  2.3185497611545447e-05  2.3179356278186511e-05  2.3181299970691025e-05  2.3190254175709078e-05  2.3205410645810103e-05  2.3226126682256801e-05  2.3251757850046259e-05  2.3281515303790943e-05  2.3314396028921480e-05  2.3349187850365596e-05  2.3384524291957405e-05  2.3418960279901036e-05  2.3451048543710988e-05  2.3479407341780867e-05  2.3502777164492265e-05  2.3520066953854975e-05  2.3530390906044879e-05  2.3533096697504946e-05  2.3527785751197032e-05  2.3514326096947777e-05  2.3492858444052081e-05  2.3463796268273071e-05  2.3427821054524561e-05  2.3385874258493020e-05  2.3339147581467092e-05  2.3289071536382476e-05  2.3237296853874332e-05  2.3185652133233135e-05  2.3136046734455742e-05  2.3090283515733745e-05  2.3049775721070141e-05  2.3015237287839455e-05  2.2986491756240166e-05  2.2962527939445807e-05  2.2941789355689475e-05  2.2922539652223663e-05  2.2903142595515034e-05  2.2882214717028786e-05  2.2858729995004519e-05  2.2832229584315610e-05  2.2803331959015874e-05  2.2774651156665970e-05  2.2751706416964617e-05  2.2742543325612213e-05  2.2755066103318343e-05  2.2793498583764756e-05  2.2857001052001444e-05  2.2941317786628327e-05  2.3041396528130028e-05  2.3152950148361500e-05  2.3272701628177178e-05  2.3398029150416041e-05  2.3526607526080846e-05  2.3656237863086864e-05  2.3784828691421692e-05  2.3910449871845949e-05  2.4031405477972837e-05  2.4146295700913559e-05  2.4254052931676639e-05  2.4353947926812723e-05  2.4445569223942125e-05  2.4528782938029702e-05  2.4603681298542686e-05  2.4670527585927958e-05  2.4729703354110492e-05  2.4781661725016672e-05  2.4826888621084884e-05  2.4865872323099510e-05  2.4899080767107618e-05  2.4926945469655883e-05  2.4949850790221156e-05  2.4968127299584931e-05  2.4982048245872872e-05  2.4991828432341500e-05  2.4997625049985435e-05  2.4999539240874046e-05  2.4677634872793000e-05  2.4672960909055325e-05  2.4658991056233170e-05  2.4635763686894105e-05  2.4603339143748785e-05  2.4561819277353293e-05  2.4511378508062288e-05  2.4452299953135523e-05  2.4385012662926678e-05  2.4310126106338275e-05  2.4228457436557226e-05  2.4141046773337263e-05  2.4049156317564605e-05  2.3954250876212784e-05  2.3857960389327518e-05  2.3762029020813680e-05  2.3668259295761374e-05  2.3578461378661110e-05  2.3494413566093588e-05  2.3417827377079165e-05  2.3350290909123049e-05  2.3293153856851317e-05  2.3247343478497187e-05  2.3213168412878206e-05  2.3190229470726793e-05  2.3177535575773775e-05  2.3173803266679165e-05  2.3177794344661481e-05  2.3188528887958323e-05  2.3205303802726288e-05  2.3227560912433040e-05  2.3254705638899046e-05  2.3285965799204959e-05  2.3320332083945937e-05  2.3356575037645432e-05  2.3393309134752388e-05  2.3429073590568022e-05  2.3462410496526761e-05  2.3491932293816650e-05  2.3516377367722076e-05  2.3534654935655790e-05  2.3545880558145591e-05  2.3549403191676898e-05  2.3544824411053991e-05  2.3532010338254654e-05  2.3511096842305163e-05  2.3482488696657384e-05  2.3446853644793056e-05  2.3405112715019725e-05  2.3358428302469190e-05  2.3308190488648687e-05  2.3255997910980846e-05  2.3203620232360999e-05  2.3152915971682788e-05  2.3105672083834196e-05  2.3063351176234118e-05  2.3026794136363097e-05  2.2996002388987985e-05  2.2970133635957106e-05  2.2947736127113217e-05  2.2927099919655275e-05  2.2906564298282988e-05  2.2884715083281227e-05  2.2860533719867162e-05  2.2833648795182475e-05  2.2804873861569901e-05  2.2777081097767911e-05  2.2755917851588124e-05  2.2749173877588856e-05  2.2764117646350873e-05  2.2804337474259869e-05  2.2868730228736462e-05  2.2953156784958052e-05  2.3052829288419130e-05  2.3163686109037791e-05  2.3282586363921822e-05  2.3406979549349974e-05  2.3534580920291545e-05  2.3663221025890810e-05  2.3790834118765002e-05  2.3915513265387451e-05  2.4035582447883838e-05  2.4149657403148742e-05  2.4256681026311150e-05  2.4355929455247122e-05  2.4446991953468082e-05  2.4529731547588913e-05  2.4604234576355543e-05  2.4670756636758916e-05  2.4729670697117165e-05  2.4781421104418834e-05  2.4826485339873809e-05  2.4865343928689385e-05  2.4898457952183646e-05  2.4926253089270514e-05  2.4949108925883187e-05  2.4967352304264992e-05  2.4981253639446340e-05  2.4991025304613644e-05  2.4996821218268419e-05  2.4998736372963264e-05  2.4611422377771402e-05  2.4606767518945251e-05  2.4592821716170880e-05  2.4569625812235683e-05  2.4537260615982370e-05  2.4495863974939834e-05  2.4445657444012206e-05  2.4386978250253406e-05  2.4320312472835270e-05  2.4246325196403976e-05  2.4165883101166107e-05  2.4080065037330800e-05  2.3990157031582296e-05  2.3897630163166069e-05  2.3804102859857084e-05  2.3711292987874509e-05  2.3620968310711718e-05  2.3534903917478474e-05  2.3454848957664824e-05  2.3382489840821968e-05  2.3319377727911651e-05  2.3266786386762424e-05  2.3225507036389263e-05  2.3195661767864507e-05  2.3176663725877339e-05  2.3167398734442488e-05  2.3166565723619990e-05  2.3173007371193005e-05  2.3185879177059231e-05  2.3204616140128200e-05  2.3228764179227230e-05  2.3257785145814047e-05  2.3290920844394970e-05  2.3327148398171669e-05  2.3365212970598683e-05  2.3403703228851459e-05  2.3441138014898563e-05  2.3476046117459298e-05  2.3507033058664503e-05  2.3532835098678398e-05  2.3552362371322443e-05  2.3564732756311957e-05  2.3569297473301824e-05  2.3565659028182787e-05  2.3553682031868627e-05  2.3533497405809137e-05  2.3505500542571536e-05  2.3470344162021836e-05  2.3428926929379237e-05  2.3382379171424572e-05  2.3332046482315799e-05  2.3279469100779738e-05  2.3226347741150271e-05  2.3174475051341430e-05  2.3125602734664052e-05  2.3081224476757608e-05  2.3042301576053718e-05  2.3009029083129998e-05  2.2980772023012525e-05  2.2956231046830422e-05  2.2933762146139170e-05  2.2911704203634798e-05  2.2888627413735490e-05  2.2863540348791005e-05  2.2836194127586310e-05  2.2807642779010127e-05  2.2781038189383521e-05  2.2762106564461628e-05  2.2758259219420598e-05  2.2775998897383802e-05  2.2818210553451011e-05  2.2883531559816747e-05  2.2967980751023819e-05  2.3067079408534809e-05  2.3177024077637442e-05  2.3294829839761575e-05  2.3418029269939915e-05  2.3544386251215084e-05  2.3671767782241621e-05  2.3798140394367811e-05  2.3921626376361342e-05  2.4040574762113592e-05  2.4153620786876708e-05  2.4259720429284143e-05  2.4358156399541497e-05  2.4448518621567197e-05  2.4530665943498582e-05  2.4604676976543048e-05  2.4670797328100627e-05  2.4729388849668634e-05  2.4780884550757297e-05  2.4825751015794798e-05  2.4864458751673738e-05  2.4897459954654292e-05  2.4925172667323371e-05  2.4947970098144305e-05  2.4966173887685885e-05  2.4980050227229234e-05  2.4989807879133394e-05  2.4995597234983680e-05  2.4997509548178751e-05  2.4530246744384359e-05  2.4525623328482048e-05  2.4511728277229345e-05  2.4488616598606951e-05  2.4456397817900835e-05  2.4415252326791381e-05  2.4365455168005776e-05  2.4307404115520611e-05  2.4241648303634311e-05  2.4168913263373955e-05  2.4090118069862350e-05  2.4006380669926682e-05  2.3919008651864485e-05  2.3829474938127893e-05  2.3739381061850786e-05  2.3650414133689258e-05  2.3564305546007325e-05  2.3482797389022070e-05  2.3407613409842982e-05  2.3340413418039149e-05  2.3282694156393873e-05  2.3235612087746136e-05  2.3199761591090109e-05  2.3175018049775603e-05  2.3160572686113489e-05  2.3155193087633238e-05  2.3157597849426153e-05  2.3166761217073484e-05  2.3182020079367361e-05  2.3202978738881962e-05  2.3229301720679959e-05  2.3260508300619566e-05  2.3295847092599766e-05  2.3334271492031073e-05  2.3374491753707829e-05  2.3415063546255821e-05  2.3454480758393879e-05  2.3491256474478024e-05  2.3523988464386990e-05  2.3551411057048214e-05  2.3572436103946552e-05  2.3586184892117402e-05  2.3592012027993199e-05  2.3589521910809167e-05  2.3578578300841513e-05  2.3559307457712694e-05  2.3532095311345229e-05  2.3497579198337372e-05  2.3456634927927201e-05  2.3410360236324255e-05  2.3360055518124213e-05  2.3307200889141658e-05  2.3253423428821583e-05  2.3200439157324663e-05  2.3149944875754320e-05  2.3103437923921886e-05  2.3061973860444633e-05  2.3025932047497786e-05  2.2994903947194682e-05  2.2967786311208499e-05  2.2943052230577441e-05  2.2919083805840060e-05  2.2894470059633214e-05  2.2868280564473355e-05  2.2840427598966175e-05  2.2812234526385025e-05  2.2787113676328493e-05  2.2770776402885241e-05  2.2770126119604164e-05  2.2790816474749108e-05  2.2835026134543196e-05  2.2901174611466809e-05  2.2985480252813033e-05  2.3083799654586897e-05  2.3192601904880901e-05  2.3309066700971294e-05  2.3430816284494135e-05  2.3555669272487400e-05  2.3681535165939798e-05  2.3806418623088470e-05  2.3928476457716270e-05  2.4046087157646948e-05  2.4157908686941877e-05  2.4262912039281245e-05  2.4360387155622947e-05  2.4449924156476513e-05  2.4531376355652371e-05  2.4604812650508179e-05  2.4670466295326122e-05  2.4728685502376222e-05  2.4779889432538594e-05  2.4824531392802152e-05  2.4863069694076047e-05  2.4895945706205825e-05  2.4923568133534299e-05  2.4946302328500574e-05  2.4964463457944158e-05  2.4978312444771909e-05  2.4988053755369295e-05  2.4993834248028524e-05  2.4995742449524475e-05  2.4434233474950043e-05  2.4429665796164172e-05  2.4415877232290056e-05  2.4392943879719460e-05  2.4361010314799693e-05  2.4320304932426095e-05  2.4271161014532191e-05  2.4214040807523612e-05  2.4149559172846757e-05  2.4078502975632381e-05  2.4001842385709818e-05  2.3920730896068652e-05  2.3836492343693101e-05  2.3750595650976993e-05  2.3664621076128748e-05  2.3580224295293467e-05  2.3499104784956096e-05  2.3422980316185793e-05  2.3353556240689852e-05  2.3292458980695403e-05  2.3241096873632227e-05  2.3200444548754929e-05  2.3170821109177806e-05  2.3151795117463050e-05  2.3142321246592078e-05  2.3141082627362899e-05  2.3146879328700205e-05  2.3158880624736477e-05  2.3176652481021916e-05  2.3199994976471740e-05  2.3228698895479211e-05  2.3262335602747126e-05  2.3300148703095140e-05  2.3341054939927454e-05  2.3383718876039547e-05  2.3426655676662726e-05  2.3468329825464855e-05  2.3507236548865853e-05  2.3541965246814528e-05  2.3571248651086261e-05  2.3594001208463364e-05  2.3609348745314738e-05  2.3616650424234941e-05  2.3615513578950804e-05  2.3605801919532452e-05  2.3587637560461263e-05  2.3561397251810430e-05  2.3527703160305854e-05  2.3487408664254418e-05  2.3441579882834897e-05  2.3391473718550085e-05  2.3338512176361224e-05  2.3284249234928048e-05  2.3230319568162232e-05  2.3178349931276017e-05  2.3129812544369328e-05  2.3085819390687469e-05  2.3046902653599669e-05  2.3012874380410689e-05  2.2982855523871541e-05  2.2955488395907426e-05  2.2929256418463638e-05  2.2902820701688790e-05  2.2875359127505183e-05  2.2846982371627805e-05  2.2819288183416183e-05  2.2795889936415157e-05  2.2782363835703034e-05  2.2784994674657985e-05  2.2808561274044368e-05  2.2854588139413102e-05  2.2921340367842634e-05  2.3005268919885198e-05  2.3102572492398848e-05  2.3209990827381047e-05  2.3324867508199325e-05  2.3444916739090155e-05  2.3568016195862341e-05  2.3692123027092775e-05  2.3815285131037489e-05  2.3935698393826305e-05  2.4051774378606161e-05  2.4162196254191816e-05  2.4265951289166329e-05  2.4362336764540758e-05  2.4450942123968152e-05  2.4531613517562711e-05  2.4604407987743030e-05  2.4669544011689175e-05  2.4727353648167854e-05  2.4778239751821324e-05  2.4822640052042231e-05  2.4860998580857071e-05  2.4893744043149893e-05  2.4921274215040558e-05  2.4943945244432377e-05  2.4962064714130402e-05  2.4975887427768224e-05  2.4985613030173383e-05  2.4991384742703905e-05  2.4993288679215368e-05  2.4323840324583573e-05  2.4319361106267137e-05  2.4305760435835678e-05  2.4283139599674978e-05  2.4251682095489132e-05  2.4211667394509394e-05  2.4163488973693010e-05  2.4107674058243197e-05  2.4044901932334596e-05  2.3976017423275139e-05  2.3902036400772254e-05  2.3824141058990370e-05  2.3743664523040926e-05  2.3662066812432172e-05  2.3580906619353459e-05  2.3501814451212690e-05  2.3426470738053154e-05  2.3356583770281607e-05  2.3293844850776813e-05  2.3239822989424082e-05  2.3195773760693980e-05  2.3162394636720136e