<?xml version="1.0"?>
<VTKFile type="UnstructuredGrid"  version="0.1"  >
<UnstructuredGrid>
<Piece  NumberOfPoints="10201" NumberOfCells="20000">
<Points>
<DataArray  type="Float64"  NumberOfComponents="3"  format="ascii">0 0 0  0.25 0 0  0.5 0 0  0.75 0 0  1 0 0  1.25 0 0  1.5 0 0  1.75 0 0  2 0 0  2.25 0 0  2.5 0 0  2.75 0 0  3 0 0  3.25 0 0  3.5 0 0  3.75 0 0  4 0 0  4.25 0 0  4.5 0 0  4.75 0 0  5 0 0  5.25 0 0  5.5 0 0  5.75 0 0  6 0 0  6.25 0 0  6.5 0 0  6.75 0 0  7 0 0  7.25 0 0  7.5 0 0  7.75 0 0  8 0 0  8.25 0 0  8.5 0 0  8.75 0 0  9 0 0  9.25 0 0  9.5 0 0  9.75 0 0  10 0 0  10.25 0 0  10.5 0 0  10.75 0 0  11 0 0  11.25 0 0  11.5 0 0  11.75 0 0  12 0 0  12.25 0 0  12.5 0 0  12.75 0 0  13 0 0  13.25 0 0  13.5 0 0  13.75 0 0  14 0 0  14.25 0 0  14.5 0 0  14.75 0 0  15 0 0  15.25 0 0  15.5 0 0  15.75 0 0  16 0 0  16.25 0 0  16.5 0 0  16.75 0 0  17 0 0  17.25 0 0  17.5 0 0  17.75 0 0  18 0 0  18.25 0 0  18.5 0 0  18.75 0 0  19 0 0  19.25 0 0  19.5 0 0  19.75 0 0  20 0 0  20.25 0 0  20.5 0 0  20.75 0 0  21 0 0  21.25 0 0  21.5 0 0  21.75 0 0  22 0 0  22.25 0 0  22.5 0 0  22.75 0 0  23 0 0  23.25 0 0  23.5 0 0  23.75 0 0  24 0 0  24.25 0 0  24.5 0 0  24.75 0 0  25 0 0  0 0.25 0  0.25 0.25 0  0.5 0.25 0  0.75 0.25 0  1 0.25 0  1.25 0.25 0  1.5 0.25 0  1.75 0.25 0  2 0.25 0  2.25 0.25 0  2.5 0.25 0  2.75 0.25 0  3 0.25 0  3.25 0.25 0  3.5 0.25 0  3.75 0.25 0  4 0.25 0  4.25 0.25 0  4.5 0.25 0  4.75 0.25 0  5 0.25 0  5.25 0.25 0  5.5 0.25 0  5.75 0.25 0  6 0.25 0  6.25 0.25 0  6.5 0.25 0  6.75 0.25 0  7 0.25 0  7.25 0.25 0  7.5 0.25 0  7.75 0.25 0  8 0.25 0  8.25 0.25 0  8.5 0.25 0  8.75 0.25 0  9 0.25 0  9.25 0.25 0  9.5 0.25 0  9.75 0.25 0  10 0.25 0  10.25 0.25 0  10.5 0.25 0  10.75 0.25 0  11 0.25 0  11.25 0.25 0  11.5 0.25 0  11.75 0.25 0  12 0.25 0  12.25 0.25 0  12.5 0.25 0  12.75 0.25 0  13 0.25 0  13.25 0.25 0  13.5 0.25 0  13.75 0.25 0  14 0.25 0  14.25 0.25 0  14.5 0.25 0  14.75 0.25 0  15 0.25 0  15.25 0.25 0  15.5 0.25 0  15.75 0.25 0  16 0.25 0  16.25 0.25 0  16.5 0.25 0  16.75 0.25 0  17 0.25 0  17.25 0.25 0  17.5 0.25 0  17.75 0.25 0  18 0.25 0  18.25 0.25 0  18.5 0.25 0  18.75 0.25 0  19 0.25 0  19.25 0.25 0  19.5 0.25 0  19.75 0.25 0  20 0.25 0  20.25 0.25 0  20.5 0.25 0  20.75 0.25 0  21 0.25 0  21.25 0.25 0  21.5 0.25 0  21.75 0.25 0  22 0.25 0  22.25 0.25 0  22.5 0.25 0  22.75 0.25 0  23 0.25 0  23.25 0.25 0  23.5 0.25 0  23.75 0.25 0  24 0.25 0  24.25 0.25 0  24.5 0.25 0  24.75 0.25 0  25 0.25 0  0 0.5 0  0.25 0.5 0  0.5 0.5 0  0.75 0.5 0  1 0.5 0  1.25 0.5 0  1.5 0.5 0  1.75 0.5 0  2 0.5 0  2.25 0.5 0  2.5 0.5 0  2.75 0.5 0  3 0.5 0  3.25 0.5 0  3.5 0.5 0  3.75 0.5 0  4 0.5 0  4.25 0.5 0  4.5 0.5 0  4.75 0.5 0  5 0.5 0  5.25 0.5 0  5.5 0.5 0  5.75 0.5 0  6 0.5 0  6.25 0.5 0  6.5 0.5 0  6.75 0.5 0  7 0.5 0  7.25 0.5 0  7.5 0.5 0  7.75 0.5 0  8 0.5 0  8.25 0.5 0  8.5 0.5 0  8.75 0.5 0  9 0.5 0  9.25 0.5 0  9.5 0.5 0  9.75 0.5 0  10 0.5 0  10.25 0.5 0  10.5 0.5 0  10.75 0.5 0  11 0.5 0  11.25 0.5 0  11.5 0.5 0  11.75 0.5 0  12 0.5 0  12.25 0.5 0  12.5 0.5 0  12.75 0.5 0  13 0.5 0  13.25 0.5 0  13.5 0.5 0  13.75 0.5 0  14 0.5 0  14.25 0.5 0  14.5 0.5 0  14.75 0.5 0  15 0.5 0  15.25 0.5 0  15.5 0.5 0  15.75 0.5 0  16 0.5 0  16.25 0.5 0  16.5 0.5 0  16.75 0.5 0  17 0.5 0  17.25 0.5 0  17.5 0.5 0  17.75 0.5 0  18 0.5 0  18.25 0.5 0  18.5 0.5 0  18.75 0.5 0  19 0.5 0  19.25 0.5 0  19.5 0.5 0  19.75 0.5 0  20 0.5 0  20.25 0.5 0  20.5 0.5 0  20.75 0.5 0  21 0.5 0  21.25 0.5 0  21.5 0.5 0  21.75 0.5 0  22 0.5 0  22.25 0.5 0  22.5 0.5 0  22.75 0.5 0  23 0.5 0  23.25 0.5 0  23.5 0.5 0  23.75 0.5 0  24 0.5 0  24.25 0.5 0  24.5 0.5 0  24.75 0.5 0  25 0.5 0  0 0.75 0  0.25 0.75 0  0.5 0.75 0  0.75 0.75 0  1 0.75 0  1.25 0.75 0  1.5 0.75 0  1.75 0.75 0  2 0.75 0  2.25 0.75 0  2.5 0.75 0  2.75 0.75 0  3 0.75 0  3.25 0.75 0  3.5 0.75 0  3.75 0.75 0  4 0.75 0  4.25 0.75 0  4.5 0.75 0  4.75 0.75 0  5 0.75 0  5.25 0.75 0  5.5 0.75 0  5.75 0.75 0  6 0.75 0  6.25 0.75 0  6.5 0.75 0  6.75 0.75 0  7 0.75 0  7.25 0.75 0  7.5 0.75 0  7.75 0.75 0  8 0.75 0  8.25 0.75 0  8.5 0.75 0  8.75 0.75 0  9 0.75 0  9.25 0.75 0  9.5 0.75 0  9.75 0.75 0  10 0.75 0  10.25 0.75 0  10.5 0.75 0  10.75 0.75 0  11 0.75 0  11.25 0.75 0  11.5 0.75 0  11.75 0.75 0  12 0.75 0  12.25 0.75 0  12.5 0.75 0  12.75 0.75 0  13 0.75 0  13.25 0.75 0  13.5 0.75 0  13.75 0.75 0  14 0.75 0  14.25 0.75 0  14.5 0.75 0  14.75 0.75 0  15 0.75 0  15.25 0.75 0  15.5 0.75 0  15.75 0.75 0  16 0.75 0  16.25 0.75 0  16.5 0.75 0  16.75 0.75 0  17 0.75 0  17.25 0.75 0  17.5 0.75 0  17.75 0.75 0  18 0.75 0  18.25 0.75 0  18.5 0.75 0  18.75 0.75 0  19 0.75 0  19.25 0.75 0  19.5 0.75 0  19.75 0.75 0  20 0.75 0  20.25 0.75 0  20.5 0.75 0  20.75 0.75 0  21 0.75 0  21.25 0.75 0  21.5 0.75 0  21.75 0.75 0  22 0.75 0  22.25 0.75 0  22.5 0.75 0  22.75 0.75 0  23 0.75 0  23.25 0.75 0  23.5 0.75 0  23.75 0.75 0  24 0.75 0  24.25 0.75 0  24.5 0.75 0  24.75 0.75 0  25 0.75 0  0 1 0  0.25 1 0  0.5 1 0  0.75 1 0  1 1 0  1.25 1 0  1.5 1 0  1.75 1 0  2 1 0  2.25 1 0  2.5 1 0  2.75 1 0  3 1 0  3.25 1 0  3.5 1 0  3.75 1 0  4 1 0  4.25 1 0  4.5 1 0  4.75 1 0  5 1 0  5.25 1 0  5.5 1 0  5.75 1 0  6 1 0  6.25 1 0  6.5 1 0  6.75 1 0  7 1 0  7.25 1 0  7.5 1 0  7.75 1 0  8 1 0  8.25 1 0  8.5 1 0  8.75 1 0  9 1 0  9.25 1 0  9.5 1 0  9.75 1 0  10 1 0  10.25 1 0  10.5 1 0  10.75 1 0  11 1 0  11.25 1 0  11.5 1 0  11.75 1 0  12 1 0  12.25 1 0  12.5 1 0  12.75 1 0  13 1 0  13.25 1 0  13.5 1 0  13.75 1 0  14 1 0  14.25 1 0  14.5 1 0  14.75 1 0  15 1 0  15.25 1 0  15.5 1 0  15.75 1 0  16 1 0  16.25 1 0  16.5 1 0  16.75 1 0  17 1 0  17.25 1 0  17.5 1 0  17.75 1 0  18 1 0  18.25 1 0  18.5 1 0  18.75 1 0  19 1 0  19.25 1 0  19.5 1 0  19.75 1 0  20 1 0  20.25 1 0  20.5 1 0  20.75 1 0  21 1 0  21.25 1 0  21.5 1 0  21.75 1 0  22 1 0  22.25 1 0  22.5 1 0  22.75 1 0  23 1 0  23.25 1 0  23.5 1 0  23.75 1 0  24 1 0  24.25 1 0  24.5 1 0  24.75 1 0  25 1 0  0 1.25 0  0.25 1.25 0  0.5 1.25 0  0.75 1.25 0  1 1.25 0  1.25 1.25 0  1.5 1.25 0  1.75 1.25 0  2 1.25 0  2.25 1.25 0  2.5 1.25 0  2.75 1.25 0  3 1.25 0  3.25 1.25 0  3.5 1.25 0  3.75 1.25 0  4 1.25 0  4.25 1.25 0  4.5 1.25 0  4.75 1.25 0  5 1.25 0  5.25 1.25 0  5.5 1.25 0  5.75 1.25 0  6 1.25 0  6.25 1.25 0  6.5 1.25 0  6.75 1.25 0  7 1.25 0  7.25 1.25 0  7.5 1.25 0  7.75 1.25 0  8 1.25 0  8.25 1.25 0  8.5 1.25 0  8.75 1.25 0  9 1.25 0  9.25 1.25 0  9.5 1.25 0  9.75 1.25 0  10 1.25 0  10.25 1.25 0  10.5 1.25 0  10.75 1.25 0  11 1.25 0  11.25 1.25 0  11.5 1.25 0  11.75 1.25 0  12 1.25 0  12.25 1.25 0  12.5 1.25 0  12.75 1.25 0  13 1.25 0  13.25 1.25 0  13.5 1.25 0  13.75 1.25 0  14 1.25 0  14.25 1.25 0  14.5 1.25 0  14.75 1.25 0  15 1.25 0  15.25 1.25 0  15.5 1.25 0  15.75 1.25 0  16 1.25 0  16.25 1.25 0  16.5 1.25 0  16.75 1.25 0  17 1.25 0  17.25 1.25 0  17.5 1.25 0  17.75 1.25 0  18 1.25 0  18.25 1.25 0  18.5 1.25 0  18.75 1.25 0  19 1.25 0  19.25 1.25 0  19.5 1.25 0  19.75 1.25 0  20 1.25 0  20.25 1.25 0  20.5 1.25 0  20.75 1.25 0  21 1.25 0  21.25 1.25 0  21.5 1.25 0  21.75 1.25 0  22 1.25 0  22.25 1.25 0  22.5 1.25 0  22.75 1.25 0  23 1.25 0  23.25 1.25 0  23.5 1.25 0  23.75 1.25 0  24 1.25 0  24.25 1.25 0  24.5 1.25 0  24.75 1.25 0  25 1.25 0  0 1.5 0  0.25 1.5 0  0.5 1.5 0  0.75 1.5 0  1 1.5 0  1.25 1.5 0  1.5 1.5 0  1.75 1.5 0  2 1.5 0  2.25 1.5 0  2.5 1.5 0  2.75 1.5 0  3 1.5 0  3.25 1.5 0  3.5 1.5 0  3.75 1.5 0  4 1.5 0  4.25 1.5 0  4.5 1.5 0  4.75 1.5 0  5 1.5 0  5.25 1.5 0  5.5 1.5 0  5.75 1.5 0  6 1.5 0  6.25 1.5 0  6.5 1.5 0  6.75 1.5 0  7 1.5 0  7.25 1.5 0  7.5 1.5 0  7.75 1.5 0  8 1.5 0  8.25 1.5 0  8.5 1.5 0  8.75 1.5 0  9 1.5 0  9.25 1.5 0  9.5 1.5 0  9.75 1.5 0  10 1.5 0  10.25 1.5 0  10.5 1.5 0  10.75 1.5 0  11 1.5 0  11.25 1.5 0  11.5 1.5 0  11.75 1.5 0  12 1.5 0  12.25 1.5 0  12.5 1.5 0  12.75 1.5 0  13 1.5 0  13.25 1.5 0  13.5 1.5 0  13.75 1.5 0  14 1.5 0  14.25 1.5 0  14.5 1.5 0  14.75 1.5 0  15 1.5 0  15.25 1.5 0  15.5 1.5 0  15.75 1.5 0  16 1.5 0  16.25 1.5 0  16.5 1.5 0  16.75 1.5 0  17 1.5 0  17.25 1.5 0  17.5 1.5 0  17.75 1.5 0  18 1.5 0  18.25 1.5 0  18.5 1.5 0  18.75 1.5 0  19 1.5 0  19.25 1.5 0  19.5 1.5 0  19.75 1.5 0  20 1.5 0  20.25 1.5 0  20.5 1.5 0  20.75 1.5 0  21 1.5 0  21.25 1.5 0  21.5 1.5 0  21.75 1.5 0  22 1.5 0  22.25 1.5 0  22.5 1.5 0  22.75 1.5 0  23 1.5 0  23.25 1.5 0  23.5 1.5 0  23.75 1.5 0  24 1.5 0  24.25 1.5 0  24.5 1.5 0  24.75 1.5 0  25 1.5 0  0 1.75 0  0.25 1.75 0  0.5 1.75 0  0.75 1.75 0  1 1.75 0  1.25 1.75 0  1.5 1.75 0  1.75 1.75 0  2 1.75 0  2.25 1.75 0  2.5 1.75 0  2.75 1.75 0  3 1.75 0  3.25 1.75 0  3.5 1.75 0  3.75 1.75 0  4 1.75 0  4.25 1.75 0  4.5 1.75 0  4.75 1.75 0  5 1.75 0  5.25 1.75 0  5.5 1.75 0  5.75 1.75 0  6 1.75 0  6.25 1.75 0  6.5 1.75 0  6.75 1.75 0  7 1.75 0  7.25 1.75 0  7.5 1.75 0  7.75 1.75 0  8 1.75 0  8.25 1.75 0  8.5 1.75 0  8.75 1.75 0  9 1.75 0  9.25 1.75 0  9.5 1.75 0  9.75 1.75 0  10 1.75 0  10.25 1.75 0  10.5 1.75 0  10.75 1.75 0  11 1.75 0  11.25 1.75 0  11.5 1.75 0  11.75 1.75 0  12 1.75 0  12.25 1.75 0  12.5 1.75 0  12.75 1.75 0  13 1.75 0  13.25 1.75 0  13.5 1.75 0  13.75 1.75 0  14 1.75 0  14.25 1.75 0  14.5 1.75 0  14.75 1.75 0  15 1.75 0  15.25 1.75 0  15.5 1.75 0  15.75 1.75 0  16 1.75 0  16.25 1.75 0  16.5 1.75 0  16.75 1.75 0  17 1.75 0  17.25 1.75 0  17.5 1.75 0  17.75 1.75 0  18 1.75 0  18.25 1.75 0  18.5 1.75 0  18.75 1.75 0  19 1.75 0  19.25 1.75 0  19.5 1.75 0  19.75 1.75 0  20 1.75 0  20.25 1.75 0  20.5 1.75 0  20.75 1.75 0  21 1.75 0  21.25 1.75 0  21.5 1.75 0  21.75 1.75 0  22 1.75 0  22.25 1.75 0  22.5 1.75 0  22.75 1.75 0  23 1.75 0  23.25 1.75 0  23.5 1.75 0  23.75 1.75 0  24 1.75 0  24.25 1.75 0  24.5 1.75 0  24.75 1.75 0  25 1.75 0  0 2 0  0.25 2 0  0.5 2 0  0.75 2 0  1 2 0  1.25 2 0  1.5 2 0  1.75 2 0  2 2 0  2.25 2 0  2.5 2 0  2.75 2 0  3 2 0  3.25 2 0  3.5 2 0  3.75 2 0  4 2 0  4.25 2 0  4.5 2 0  4.75 2 0  5 2 0  5.25 2 0  5.5 2 0  5.75 2 0  6 2 0  6.25 2 0  6.5 2 0  6.75 2 0  7 2 0  7.25 2 0  7.5 2 0  7.75 2 0  8 2 0  8.25 2 0  8.5 2 0  8.75 2 0  9 2 0  9.25 2 0  9.5 2 0  9.75 2 0  10 2 0  10.25 2 0  10.5 2 0  10.75 2 0  11 2 0  11.25 2 0 
[...]
<PointData  Scalars="f_26"> 
<DataArray  type="Float64"  Name="f_26"  format="ascii">2.2596495692064196e-05  2.2600770679674395e-05  2.2611488728202786e-05  2.2628975523302902e-05  2.2653304393144464e-05  2.2684392735167461e-05  2.2721999212538792e-05  2.2765722620675743e-05  2.2815019754161862e-05  2.2869236104345002e-05  2.2927639376804301e-05  2.2989449556033394e-05  2.3053864120479948e-05  2.3120079816318799e-05  2.3187312689314616e-05  2.3254817002127868e-05  2.3321902531172823e-05  2.3387949177332335e-05  2.3452417850821776e-05  2.3514856967647444e-05  2.3574904393656971e-05  2.3632285139947942e-05  2.3686805469356442e-05  2.3738344287812214e-05  2.3786842770505969e-05  2.3832293135706980e-05  2.3874727362877640e-05  2.3914206491471669e-05  2.3950810962485942e-05  2.3984632298568995e-05  2.4015766273989885e-05  2.4044307609479788e-05  2.4070346139898640e-05  2.4093964342413057e-05  2.4115236075161629e-05  2.4134226356397628e-05  2.4150992007167367e-05  2.4165582982594162e-05  2.4178044224397068e-05  2.4188417877716835e-05  2.4196745726682875e-05  2.4203071714119122e-05  2.4207444420654348e-05  2.4209919387164790e-05  2.4210561172380856e-05  2.4209445045578787e-05  2.4206658223878826e-05  2.4202300576320967e-05  2.4196484734092279e-05  2.4189335569218776e-05  2.4180989033258106e-05  2.4171590382671986e-05  2.4161291857151390e-05  2.4150249918597584e-05  2.4138622198112563e-05  2.4126564331950767e-05  2.4114226890520626e-05  2.4101752613271355e-05  2.4089274153837370e-05  2.4076912512941959e-05  2.4064776292020356e-05  2.4052961841023277e-05  2.4041554303859474e-05  2.4030629490154537e-05  2.4020256428816336e-05  2.4010500393661422e-05  2.4001426139800560e-05  2.3993101056226337e-05  2.3985597928290496e-05  2.3978997015123875e-05  2.3973387181553714e-05  2.3968865880173289e-05  2.3965537853917652e-05  2.3963512518450173e-05  2.3962900081314293e-05  2.3963806554592720e-05  2.3966327912464381e-05  2.3970543726975935e-05  2.3976510677208771e-05  2.3984256362381423e-05  2.3993773853452891e-05  2.4005017387974186e-05  2.4017899549666490e-05  2.4032290181145378e-05  2.4048017162314959e-05  2.4064869058071412e-05  2.4082599508954857e-05  2.4100933119873199e-05  2.4119572506730263e-05  2.4138206097956516e-05  2.4156516262870856e-05  2.4174187351943234e-05  2.4190913280607780e-05  2.4206404358273832e-05  2.4220393141520117e-05  2.4232639147593962e-05  2.4242932237761442e-05  2.4251094165275541e-05  2.4256976368156009e-05  2.4260445976482881e-05  2.4261324187701664e-05  2.2598869920339776e-05  2.2602539399624153e-05  2.2613093126970723e-05  2.2630506581691389e-05  2.2654771088044050e-05  2.2685781383995411e-05  2.2723289140724539e-05  2.2766891751542508e-05  2.2816047184191416e-05  2.2870103341520901e-05  2.2928330862547779e-05  2.2989952845717943e-05  2.3054169942132662e-05  2.3120182081222382e-05  2.3187208445360802e-05  2.3254506310618249e-05  2.3321388265739867e-05  2.3387236757385403e-05  2.3451514927583709e-05  2.3513773082412848e-05  2.3573650627132746e-05  2.3630873768888338e-05  2.3685249642794109e-05  2.3736657730835482e-05  2.3785039519458286e-05  2.3830387305340211e-05  2.3872732943570597e-05  2.3912137173130972e-05  2.3948679981065417e-05  2.3982452301106431e-05  2.4013549198478821e-05  2.4042064576589330e-05  2.4068087354369795e-05  2.4091699002770823e-05  2.4112972291100997e-05  2.4131971073779053e-05  2.4148750940979128e-05  2.4163360558522464e-05  2.4175843529828339e-05  2.4186240623133261e-05  2.4194592218556132e-05  2.4200940840605319e-05  2.4205333651674312e-05  2.4207824790821199e-05  2.4208477450091130e-05  2.4207365588732045e-05  2.4204575195171546e-05  2.4200205019084570e-05  2.4194366712786482e-05  2.4187184343727031e-05  2.4178793268615693e-05  2.4169338394360386e-05  2.4158971890143239e-05  2.4147850456041115e-05  2.4136132293073811e-05  2.4123973953205462e-05  2.4111527271249486e-05  2.4098936589898341e-05  2.4086336481355324e-05  2.4073850143020104e-05  2.4061588601022471e-05  2.4049650796731409e-05  2.4038124562062846e-05  2.4027088415134418e-05  2.4016614034913344e-05  2.4006769208331193e-05  2.3997620991652951e-05  2.3989238794352436e-05  2.3981697081610719e-05  2.3975077402485659e-05  2.3969469484849580e-05  2.3964971193839586e-05  2.3961687224817681e-05  2.3959726490344607e-05  2.3959198257872703e-05  2.3960207194194213e-05  2.3962847566868169e-05  2.3967196934323151e-05  2.3973309717775507e-05  2.3981211083098089e-05  2.3990891564523695e-05  2.4002302832086601e-05  2.4015354941408404e-05  2.4029915311493533e-05  2.4045809560571616e-05  2.4062824201546657e-05  2.4080711069141786e-05  2.4099193232936638e-05  2.4117972055892298e-05  2.4136734995856485e-05  2.4155163723253831e-05  2.4172942142229238e-05  2.4189763950476394e-05  2.4205339445871984e-05  2.4219401373311818e-05  2.4231709688387503e-05  2.4242055185499937e-05  2.4250262025842182e-05  2.4256189583246342e-05  2.4259736424489114e-05  2.4260863492130542e-05  2.2603958211499445e-05  2.2607471663427674e-05  2.2617888313631489e-05  2.2635173665628593e-05  2.2659283401992962e-05  2.2690087844795807e-05  2.2727325791540414e-05  2.2770590667714810e-05  2.2819342742643474e-05  2.2872936098586701e-05  2.2930649595799920e-05  2.2991715466057460e-05  2.3055343858936318e-05  2.3120744338643570e-05  2.3187145715723101e-05  2.3253814713837276e-05  2.3320072966579783e-05  2.3385311323689868e-05  2.3449000472373038e-05  2.3510697242226239e-05  2.3570046443445033e-05  2.3626778540350939e-05  2.3680703807196554e-05  2.3731703821247245e-05  2.3779721222725700e-05  2.3824748635819248e-05  2.3866817532468580e-05  2.3905987664930349e-05  2.3942337523258778e-05  2.3975956111413369e-05  2.4006936194097746e-05  2.4035369052040483e-05  2.4061340697350911e-05  2.4084929440557909e-05  2.4106204662943300e-05  2.4125226627197023e-05  2.4142047151772236e-05  2.4156710975651332e-05  2.4169257647263139e-05  2.4179723781417379e-05  2.4188145539393823e-05  2.4194561198394968e-05  2.4199013686676555e-05  2.4201552969603057e-05  2.4202238179969880e-05  2.4201139394016706e-05  2.4198338963851983e-05  2.4193932328981637e-05  2.4188028245766406e-05  2.4180748395138998e-05  2.4172226356444170e-05  2.4162605968622316e-05  2.4152039137886706e-05  2.4140683191170191e-05  2.4128697913552993e-05  2.4116242441538234e-05  2.4103472208104252e-05  2.4090536145994959e-05  2.4077574349765566e-05  2.4064716373256287e-05  2.4052080297859781e-05  2.4039772650570191e-05  2.4027889183508344e-05  2.4016516453904272e-05  2.4005734071624929e-05  2.3995617416593352e-05  2.3986240576654688e-05  2.3977679222366371e-05  2.3970013122195600e-05  2.3963328011487859e-05  2.3957716561475674e-05  2.3953278249073765e-05  2.3950118001285971e-05  2.3948343575373794e-05  2.3948061731920392e-05  2.3949373355977439e-05  2.3952367774318161e-05  2.3957116596883069e-05  2.3963667470516257e-05  2.3972038166701519e-05  2.3982211427507682e-05  2.3994130962957663e-05  2.4007698929066697e-05  2.4022775122626665e-05  2.4039178013489594e-05  2.4056687607521087e-05  2.4075050005422152e-05  2.4093983406785052e-05  2.4113185216663378e-05  2.4132339852665197e-05  2.4151126829306571e-05  2.4169228713622140e-05  2.4186338597727613e-05  2.4202166812452946e-05  2.4216446702265980e-05  2.4228939389867044e-05  2.4239437588334399e-05  2.4247768724135376e-05  2.4253798088392007e-05  2.4257433800323820e-05  2.4258636765626356e-05  2.2612269233951102e-05  2.2615723365127213e-05  2.2626022776651713e-05  2.2643139409596460e-05  2.2667008435065422e-05  2.2697478007735492e-05  2.2734272616488076e-05  2.2776981292224531e-05  2.2825068378477050e-05  2.2877897811472869e-05  2.2934761583787158e-05  2.2994906658708160e-05  2.3057558645489500e-05  2.3121942902694550e-05  2.3187304119152221e-05  2.3252924687039301e-05  2.3318141325728334e-05  2.3382358981521830e-05  2.3445061074314781e-05  2.3505815511140743e-05  2.3564276343410269e-05  2.3620181373969514e-05  2.3673346347837134e-05  2.3723656558281974e-05  2.3771056770640712e-05  2.3815540332020034e-05  2.3857138226937829e-05  2.3895908689212208e-05  2.3931927816768786e-05  2.3965281479094768e-05  2.3996058669733011e-05  2.4024346344687429e-05  2.4050225703095826e-05  2.4073769806988636e-05  2.4095042398666852e-05  2.4114097752888984e-05  2.4130981392452199e-05  2.4145731496152594e-05  2.4158380834384449e-05  2.4168959077277888e-05  2.4177495331352787e-05  2.4184020771807090e-05  2.4188571247912996e-05  2.4191189748241851e-05  2.4191928620774717e-05  2.4190851451065446e-05  2.4188034510605490e-05  2.4183567698768717e-05  2.4177554916634418e-05  2.4170113830846652e-05  2.4161375011226772e-05  2.4151480457097409e-05  2.4140581563190653e-05  2.4128836614502319e-05  2.4116407937404862e-05  2.4103458867878031e-05  2.4090150722683738e-05  2.4076639971777999e-05  2.4063075807156176e-05  2.4049598283002858e-05  2.4036337164571587e-05  2.4023411570667887e-05  2.4010930430745340e-05  2.3998993707647478e-05  2.3987694266986541e-05  2.3977120210304900e-05  2.3967357437363032e-05  2.3958492168039061e-05  2.3950613139972452e-05  2.3943813206230047e-05  2.3938190088242107e-05  2.3933846091718588e-05  2.3930886664306046e-05  2.3929417759034476e-05  2.3929542061521196e-05  2.3931354234817306e-05  2.3934935426391946e-05  2.3940347359500309e-05  2.3947626388841207e-05  2.3956777931718147e-05  2.3967771686289735e-05  2.3980538015706473e-05  2.3994965811684400e-05  2.4010902057327891e-05  2.4028153194006801e-05  2.4046488270848304e-05  2.4065643729843919e-05  2.4085329567169688e-05  2.4105236523495549e-05  2.4125043901592170e-05  2.4144427593268933e-05  2.4163067919827601e-05  2.4180656946583713e-05  2.4196905015063145e-05  2.4211546337526566e-05  2.4224343610942814e-05  2.4235091731279454e-05  2.4243620832209966e-05  2.4249799029811104e-05  2.4253535267173714e-05  2.4254781645068971e-05  2.2624214195109165e-05  2.2627623664801791e-05  2.2637793429332859e-05  2.2654688278773480e-05  2.2678221978161494e-05  2.2708220120487782e-05  2.2744392316048782e-05  2.2786323574877631e-05  2.2833484160842267e-05  2.2885251087349062e-05  2.2940933731318634e-05  2.2999798729917460e-05  2.3061092545204005e-05  2.3124062013756320e-05  2.3187973545231383e-05  2.3252131062798432e-05  2.3315892099051287e-05  2.3378681129201315e-05  2.3439999295968680e-05  2.3499430013496429e-05  2.3556640363703733e-05  2.3611378597620375e-05  2.3663468358875036e-05  2.3712800430205670e-05  2.3759322868994036e-05  2.3803030364742115e-05  2.3843953549004864e-05  2.3882148846515563e-05  2.3917689300987415e-05  2.3950656659630727e-05  2.3981134868958947e-05  2.4009205026918643e-05  2.4034941754052567e-05  2.4058410887566568e-05  2.4079668363497879e-05  2.4098760129783168e-05  2.4115722923076909e-05  2.4130585741249606e-05  2.4143371848696131e-05  2.4154101160527850e-05  2.4162792862525969e-05  2.4169468134981536e-05  2.4174152859284532e-05  2.4176880195866873e-05  2.4177692930855384e-05  2.4176645497034764e-05  2.4173805583374155e-05  2.4169255257672501e-05  2.4163091540208172e-05  2.4155426383918300e-05  2.4146386039478513e-05  2.4136109811932094e-05  2.4124748248551296e-05  2.4112460833690522e-05  2.4099413302786761e-05  2.4085774720845568e-05  2.4071714496762066e-05  2.4057399519800618e-05  2.4042991605300524e-05  2.4028645421214006e-05  2.4014507035074782e-05  2.4000713173930932e-05  2.3987391230926564e-05  2.3974659986336427e-05  2.3962630943688784e-05  2.3951410119276049e-05  2.3941100071726195e-05  2.3931801922456318e-05  2.3923617101571240e-05  2.3916648559381424e-05  2.3911001211787152e-05  2.3906781437185123e-05  2.3904095510524721e-05  2.3903046942381891e-05  2.3903732781817835e-05  2.3906239034689325e-05  2.3910635436633633e-05  2.3916969894602111e-05  2.3925262965357032e-05  2.3935502767592878e-05  2.3947640721844941e-05  2.3961588477073647e-05  2.3977216315711567e-05  2.3994353234281402e-05  2.4012788781943306e-05  2.4032276614772679e-05  2.4052539601243136e-05  2.4073276206706644e-05  2.4094167802779925e-05  2.4114886499770144e-05  2.4135103090835122e-05  2.4154494725044947e-05  2.4172751988034818e-05  2.4189585155265356e-05  2.4204729484029146e-05  2.4217949516140493e-05  2.4229042463655274e-05  2.4237840829542682e-05  2.4244214431866818e-05  2.4248071832858068e-05  2.4249360577541046e-05  2.2640239400308862e-05  2.2643595325071270e-05  2.2653599472942621e-05  2.2670201150972545e-05  2.2693290079124954e-05  2.2722668633387576e-05  2.2758031592938685e-05  2.2798960673568264e-05  2.2844933657892729e-05  2.2895343170871921e-05  2.2949519367525264e-05  2.3006752665435290e-05  2.3066315036196961e-05  2.3127479843023843e-05  2.3189540502499302e-05  2.3251827836897711e-05  2.3313725485874845e-05  2.3374682523047865e-05  2.3434222525739747e-05  2.3491948662205895e-05  2.3547544752259320e-05  2.3600772621458959e-05  2.3651466346376742e-05  2.3699524155155963e-05  2.3744898805725337e-05  2.3787587232093933e-05  2.3827620153409857e-05  2.3865052208204559e-05  2.3899953031118320e-05  2.3932399549084760e-05  2.3962469649680164e-05  2.3990237271717203e-05  2.4015768888546459e-05  2.4039121296549249e-05  2.4060340582123674e-05  2.4079462116706651e-05  2.4096511417692274e-05  2.4111505710473511e-05  2.4124456030637147e-05  2.4135369713381673e-05  2.4144253127687140e-05  2.4151114524188255e-05  2.4155966876998866e-05  2.4158830610219386e-05  2.4159736109281535e-05  2.4158725925866153e-05  2.4155856593540414e-05  2.4151199980548935e-05  2.4144844117639022e-05  2.4136893453702173e-05  2.4127468511423343e-05  2.4116704939568529e-05  2.4104751987749243e-05  2.4091770462265215e-05  2.4077930255736862e-05  2.4063407575625149e-05  2.4048382023764403e-05  2.4033033696959436e-05  2.4017540484209425e-05  2.4002075726880836e-05  2.3986806383256369e-05  2.3971891799141720e-05  2.3957483134183879e-05  2.3943723433372178e-05  2.3930748270140812e-05  2.3918686827448807e-05  2.3907663232040085e-05  2.3897797920026799e-05  2.3889208793128103e-05  2.3882011926993992e-05  2.3876321617022205e-05  2.3872249592137683e-05  2.3869903290613692e-05  2.3869383170021575e-05  2.3870779110245710e-05  2.3874166057521780e-05  2.3879599141256888e-05  2.3887108566351859e-05  2.3896694634631580e-05  2.3908323273633942e-05  2.3921922445059858e-05  2.3937379766811448e-05  2.3954541612994452e-05  2.3973213860171199e-05  2.3993164333448591e-05  2.4014126883303392e-05  2.4035806905635356e-05  2.4057888015773003e-05  2.4080039512847706e-05  2.4101924231760276e-05  2.4123206379244992e-05  2.4143558986867830e-05  2.4162670681308481e-05  2.4180251561680567e-05  2.4196038073630657e-05  2.4209796868337211e-05  2.4221327718123615e-05  2.4230465612263687e-05  2.4237082150228313e-05  2.4241086248895155e-05  2.4242423987864633e-05  2.2660831494424695e-05  2.2664115558046037e-05  2.2673901938518814e-05  2.2690122005034342e-05  2.2712641272215622e-05  2.2741239857852524e-05  2.2775598872402411e-05  2.2815297892494873e-05  2.2859823568324027e-05  2.2908585965650074e-05  2.2960938513891545e-05  2.3016198611477414e-05  2.3073667562227306e-05  2.3132649554871365e-05  2.3192469621483585e-05  2.3252490237849664e-05  2.3312125898819070e-05  2.3370854881990100e-05  2.3428227545601725e-05  2.3483870805574766e-05  2.3537488792355121e-05  2.3588860015262606e-05  2.3637831609740127e-05  2.3684311390810488e-05  2.3728258486317817e-05  2.3769673292718246e-05  2.3808587407779376e-05  2.3845054072913535e-05  2.3879139524145800e-05  2.3910915520747517e-05  2.3940453204497305e-05  2.3967818345526454e-05  2.3993067954183739e-05  2.4016248181315036e-05  2.4037393389500984e-05  2.4056526252346985e-05  2.4073658725091649e-05  2.4088793725043543e-05  2.4101927362421506e-05  2.4113051569094123e-05  2.4122156982765231e-05  2.4129235955842347e-05  2.4134285570310982e-05  2.4137310551485307e-05  2.4138325983957010e-05  2.4137359742303610e-05  2.4134454557497294e-05  2.4129669648266833e-05  2.4123081856036153e-05  2.4114786233782442e-05  2.4104896054433989e-05  2.4093542224121317e-05  2.4080872109940454e-05  2.4067047820283749e-05  2.4052244006694003e-05  2.4036645287142230e-05  2.4020443418447922e-05  2.4003834366733331e-05  2.3987015435940021e-05  2.3970182612805695e-05  2.3953528270725933e-05  2.3937239344553970e-05  2.3921496045265851e-05  2.3906471130817577e-05  2.3892329692071506e-05  2.3879229355864646e-05  2.3867320756900757e-05  2.3856748091596706e-05  2.3847649544822928e-05  2.3840157377814816e-05  2.3834397483909200e-05  2.3830488257877540e-05  2.3828538682351454e-05  2.3828645607290484e-05  2.3830890280207537e-05  2.3835334269285779e-05  2.3842015001112846e-05  2.3850941201761460e-05  2.3862088576969306e-05  2.3875396087949902e-05  2.3890763169556240e-05  2.3908048195457583e-05  2.3927068422285382e-05  2.3947601546516456e-05  2.3969388892725996e-05  2.3992140130957080e-05  2.4015539306931944e-05  2.4039251874067757e-05  2.4062932351155019e-05  2.4086232200937544e-05  2.4108807534903872e-05  2.4130326295647238e-05  2.4150474643060431e-05  2.4168962364059214e-05  2.4185527225380446e-05  2.4199938282750371e-05  2.4211998235097544e-05  2.4221544957586917e-05  2.4228452351732378e-05  2.4232630614380967e-05  2.4234025987744131e-05  2.2686488014358266e-05  2.2689677028319948e-05  2.2699182786885028e-05  2.2714919935243487e-05  2.2736732408313560e-05  2.2764381067236757e-05  2.2797535844282884e-05  2.2835775912493159e-05  2.2878598059851547e-05  2.2925431087109001e-05  2.2975653422162009e-05  2.3028611795837377e-05  2.3083639825657760e-05  2.3140076021484577e-05  2.3197280881523713e-05  2.3254652583122155e-05  2.3311640582947741e-05  2.3367756410731880e-05  2.3422581098885814e-05  2.3475768972242657e-05  2.3527047842248098e-05  2.3576215939449975e-05  2.3623136135470553e-05  2.3667728134113610e-05  2.3709959353301569e-05  2.3749835189918197e-05  2.3787389279006465e-05  2.3822674248467869e-05  2.3855753348913387e-05  2.3886693219501653e-05  2.3915557943411366e-05  2.3942404455679830e-05  2.3967279292935587e-05  2.3990216618435838e-05  2.4011237415069478e-05  2.4030349711472344e-05  2.4047549689976007e-05  2.4062823517782840e-05  2.4076149742714577e-05  2.4087502100441544e-05  2.4096852589673785e-05  2.4104174683865620e-05  2.4109446561140492e-05  2.4112654247159895e-05  2.4113794577609388e-05  2.4112877897328020e-05  2.4109930421815821e-05  2.4104996194370900e-05  2.4098138579340859e-05  2.4089441240155686e-05  2.4079008561296340e-05  2.4066965487366155e-05  2.4053456770776921e-05  2.4038645642371996e-05  2.4022711945856145e-05  2.4005849805520270e-05  2.3988264924912226e-05  2.3970171638661016e-05  2.3951789857223313e-05  2.3933342051752207e-05  2.3915050421228377e-05  2.3897134365326945e-05  2.3879808354674409e-05  2.3863280247324284e-05  2.3847750050157238e-05  2.3833409071406228e-05  2.3820439361198928e-05  2.3809013296507049e-05  2.3799293140198073e-05  2.3791430394843266e-05  2.3785564782818034e-05  2.3781822715472935e-05  2.3780315164248472e-05  2.3781134912130666e-05  2.3784353239619624e-05  2.3790016178774945e-05  2.3798140544261540e-05  2.3808710013578699e-05  2.3821671572065324e-05  2.3836932655261459e-05  2.3854359307282897e-05  2.3873775627483203e-05  2.3894964700870394e-05  2.3917671106384781e-05  2.3941604980646891e-05  2.3966447495202454e-05  2.3991857495832751e-05  2.4017478965679662e-05  2.4042948919687525e-05  2.4067905321975544e-05  2.4091994640974161e-05  2.4114878715161988e-05  2.4136240686442159e-05  2.4155789857196241e-05  2.4173265428338624e-05  2.4188439167231999e-05  2.4201117125804302e-05  2.4211140573163257e-05  2.4218386320865571e-05  2.4222766609948407e-05  2.4224228721613911e-05  2.2717677411617458e-05  2.2720745867520855e-05  2.2729902496473972e-05  2.2745048407558354e-05  2.2766010508478726e-05  2.2792534995924807e-05  2.2824284243792136e-05  2.2860839366849515e-05  2.2901708679318665e-05  2.2946340739220812e-05  2.2994140162427905e-05  2.3044484677307425e-05  2.3096742435066490e-05  2.3150288972419331e-05  2.3204523315713050e-05  2.3258882628929826e-05  2.3312854724961729e-05  2.3365987798582240e-05  2.3417896915988213e-05  2.3468267059764886e-05  2.3516852813650593e-05  2.3563475024594016e