<?xml version="1.0"?>
<VTKFile type="UnstructuredGrid"  version="0.1"  >
<UnstructuredGrid>
<Piece  NumberOfPoints="10201" NumberOfCells="20000">
<Points>
<DataArray  type="Float64"  NumberOfComponents="3"  format="ascii">0 0 0  0.25 0 0  0.5 0 0  0.75 0 0  1 0 0  1.25 0 0  1.5 0 0  1.75 0 0  2 0 0  2.25 0 0  2.5 0 0  2.75 0 0  3 0 0  3.25 0 0  3.5 0 0  3.75 0 0  4 0 0  4.25 0 0  4.5 0 0  4.75 0 0  5 0 0  5.25 0 0  5.5 0 0  5.75 0 0  6 0 0  6.25 0 0  6.5 0 0  6.75 0 0  7 0 0  7.25 0 0  7.5 0 0  7.75 0 0  8 0 0  8.25 0 0  8.5 0 0  8.75 0 0  9 0 0  9.25 0 0  9.5 0 0  9.75 0 0  10 0 0  10.25 0 0  10.5 0 0  10.75 0 0  11 0 0  11.25 0 0  11.5 0 0  11.75 0 0  12 0 0  12.25 0 0  12.5 0 0  12.75 0 0  13 0 0  13.25 0 0  13.5 0 0  13.75 0 0  14 0 0  14.25 0 0  14.5 0 0  14.75 0 0  15 0 0  15.25 0 0  15.5 0 0  15.75 0 0  16 0 0  16.25 0 0  16.5 0 0  16.75 0 0  17 0 0  17.25 0 0  17.5 0 0  17.75 0 0  18 0 0  18.25 0 0  18.5 0 0  18.75 0 0  19 0 0  19.25 0 0  19.5 0 0  19.75 0 0  20 0 0  20.25 0 0  20.5 0 0  20.75 0 0  21 0 0  21.25 0 0  21.5 0 0  21.75 0 0  22 0 0  22.25 0 0  22.5 0 0  22.75 0 0  23 0 0  23.25 0 0  23.5 0 0  23.75 0 0  24 0 0  24.25 0 0  24.5 0 0  24.75 0 0  25 0 0  0 0.25 0  0.25 0.25 0  0.5 0.25 0  0.75 0.25 0  1 0.25 0  1.25 0.25 0  1.5 0.25 0  1.75 0.25 0  2 0.25 0  2.25 0.25 0  2.5 0.25 0  2.75 0.25 0  3 0.25 0  3.25 0.25 0  3.5 0.25 0  3.75 0.25 0  4 0.25 0  4.25 0.25 0  4.5 0.25 0  4.75 0.25 0  5 0.25 0  5.25 0.25 0  5.5 0.25 0  5.75 0.25 0  6 0.25 0  6.25 0.25 0  6.5 0.25 0  6.75 0.25 0  7 0.25 0  7.25 0.25 0  7.5 0.25 0  7.75 0.25 0  8 0.25 0  8.25 0.25 0  8.5 0.25 0  8.75 0.25 0  9 0.25 0  9.25 0.25 0  9.5 0.25 0  9.75 0.25 0  10 0.25 0  10.25 0.25 0  10.5 0.25 0  10.75 0.25 0  11 0.25 0  11.25 0.25 0  11.5 0.25 0  11.75 0.25 0  12 0.25 0  12.25 0.25 0  12.5 0.25 0  12.75 0.25 0  13 0.25 0  13.25 0.25 0  13.5 0.25 0  13.75 0.25 0  14 0.25 0  14.25 0.25 0  14.5 0.25 0  14.75 0.25 0  15 0.25 0  15.25 0.25 0  15.5 0.25 0  15.75 0.25 0  16 0.25 0  16.25 0.25 0  16.5 0.25 0  16.75 0.25 0  17 0.25 0  17.25 0.25 0  17.5 0.25 0  17.75 0.25 0  18 0.25 0  18.25 0.25 0  18.5 0.25 0  18.75 0.25 0  19 0.25 0  19.25 0.25 0  19.5 0.25 0  19.75 0.25 0  20 0.25 0  20.25 0.25 0  20.5 0.25 0  20.75 0.25 0  21 0.25 0  21.25 0.25 0  21.5 0.25 0  21.75 0.25 0  22 0.25 0  22.25 0.25 0  22.5 0.25 0  22.75 0.25 0  23 0.25 0  23.25 0.25 0  23.5 0.25 0  23.75 0.25 0  24 0.25 0  24.25 0.25 0  24.5 0.25 0  24.75 0.25 0  25 0.25 0  0 0.5 0  0.25 0.5 0  0.5 0.5 0  0.75 0.5 0  1 0.5 0  1.25 0.5 0  1.5 0.5 0  1.75 0.5 0  2 0.5 0  2.25 0.5 0  2.5 0.5 0  2.75 0.5 0  3 0.5 0  3.25 0.5 0  3.5 0.5 0  3.75 0.5 0  4 0.5 0  4.25 0.5 0  4.5 0.5 0  4.75 0.5 0  5 0.5 0  5.25 0.5 0  5.5 0.5 0  5.75 0.5 0  6 0.5 0  6.25 0.5 0  6.5 0.5 0  6.75 0.5 0  7 0.5 0  7.25 0.5 0  7.5 0.5 0  7.75 0.5 0  8 0.5 0  8.25 0.5 0  8.5 0.5 0  8.75 0.5 0  9 0.5 0  9.25 0.5 0  9.5 0.5 0  9.75 0.5 0  10 0.5 0  10.25 0.5 0  10.5 0.5 0  10.75 0.5 0  11 0.5 0  11.25 0.5 0  11.5 0.5 0  11.75 0.5 0  12 0.5 0  12.25 0.5 0  12.5 0.5 0  12.75 0.5 0  13 0.5 0  13.25 0.5 0  13.5 0.5 0  13.75 0.5 0  14 0.5 0  14.25 0.5 0  14.5 0.5 0  14.75 0.5 0  15 0.5 0  15.25 0.5 0  15.5 0.5 0  15.75 0.5 0  16 0.5 0  16.25 0.5 0  16.5 0.5 0  16.75 0.5 0  17 0.5 0  17.25 0.5 0  17.5 0.5 0  17.75 0.5 0  18 0.5 0  18.25 0.5 0  18.5 0.5 0  18.75 0.5 0  19 0.5 0  19.25 0.5 0  19.5 0.5 0  19.75 0.5 0  20 0.5 0  20.25 0.5 0  20.5 0.5 0  20.75 0.5 0  21 0.5 0  21.25 0.5 0  21.5 0.5 0  21.75 0.5 0  22 0.5 0  22.25 0.5 0  22.5 0.5 0  22.75 0.5 0  23 0.5 0  23.25 0.5 0  23.5 0.5 0  23.75 0.5 0  24 0.5 0  24.25 0.5 0  24.5 0.5 0  24.75 0.5 0  25 0.5 0  0 0.75 0  0.25 0.75 0  0.5 0.75 0  0.75 0.75 0  1 0.75 0  1.25 0.75 0  1.5 0.75 0  1.75 0.75 0  2 0.75 0  2.25 0.75 0  2.5 0.75 0  2.75 0.75 0  3 0.75 0  3.25 0.75 0  3.5 0.75 0  3.75 0.75 0  4 0.75 0  4.25 0.75 0  4.5 0.75 0  4.75 0.75 0  5 0.75 0  5.25 0.75 0  5.5 0.75 0  5.75 0.75 0  6 0.75 0  6.25 0.75 0  6.5 0.75 0  6.75 0.75 0  7 0.75 0  7.25 0.75 0  7.5 0.75 0  7.75 0.75 0  8 0.75 0  8.25 0.75 0  8.5 0.75 0  8.75 0.75 0  9 0.75 0  9.25 0.75 0  9.5 0.75 0  9.75 0.75 0  10 0.75 0  10.25 0.75 0  10.5 0.75 0  10.75 0.75 0  11 0.75 0  11.25 0.75 0  11.5 0.75 0  11.75 0.75 0  12 0.75 0  12.25 0.75 0  12.5 0.75 0  12.75 0.75 0  13 0.75 0  13.25 0.75 0  13.5 0.75 0  13.75 0.75 0  14 0.75 0  14.25 0.75 0  14.5 0.75 0  14.75 0.75 0  15 0.75 0  15.25 0.75 0  15.5 0.75 0  15.75 0.75 0  16 0.75 0  16.25 0.75 0  16.5 0.75 0  16.75 0.75 0  17 0.75 0  17.25 0.75 0  17.5 0.75 0  17.75 0.75 0  18 0.75 0  18.25 0.75 0  18.5 0.75 0  18.75 0.75 0  19 0.75 0  19.25 0.75 0  19.5 0.75 0  19.75 0.75 0  20 0.75 0  20.25 0.75 0  20.5 0.75 0  20.75 0.75 0  21 0.75 0  21.25 0.75 0  21.5 0.75 0  21.75 0.75 0  22 0.75 0  22.25 0.75 0  22.5 0.75 0  22.75 0.75 0  23 0.75 0  23.25 0.75 0  23.5 0.75 0  23.75 0.75 0  24 0.75 0  24.25 0.75 0  24.5 0.75 0  24.75 0.75 0  25 0.75 0  0 1 0  0.25 1 0  0.5 1 0  0.75 1 0  1 1 0  1.25 1 0  1.5 1 0  1.75 1 0  2 1 0  2.25 1 0  2.5 1 0  2.75 1 0  3 1 0  3.25 1 0  3.5 1 0  3.75 1 0  4 1 0  4.25 1 0  4.5 1 0  4.75 1 0  5 1 0  5.25 1 0  5.5 1 0  5.75 1 0  6 1 0  6.25 1 0  6.5 1 0  6.75 1 0  7 1 0  7.25 1 0  7.5 1 0  7.75 1 0  8 1 0  8.25 1 0  8.5 1 0  8.75 1 0  9 1 0  9.25 1 0  9.5 1 0  9.75 1 0  10 1 0  10.25 1 0  10.5 1 0  10.75 1 0  11 1 0  11.25 1 0  11.5 1 0  11.75 1 0  12 1 0  12.25 1 0  12.5 1 0  12.75 1 0  13 1 0  13.25 1 0  13.5 1 0  13.75 1 0  14 1 0  14.25 1 0  14.5 1 0  14.75 1 0  15 1 0  15.25 1 0  15.5 1 0  15.75 1 0  16 1 0  16.25 1 0  16.5 1 0  16.75 1 0  17 1 0  17.25 1 0  17.5 1 0  17.75 1 0  18 1 0  18.25 1 0  18.5 1 0  18.75 1 0  19 1 0  19.25 1 0  19.5 1 0  19.75 1 0  20 1 0  20.25 1 0  20.5 1 0  20.75 1 0  21 1 0  21.25 1 0  21.5 1 0  21.75 1 0  22 1 0  22.25 1 0  22.5 1 0  22.75 1 0  23 1 0  23.25 1 0  23.5 1 0  23.75 1 0  24 1 0  24.25 1 0  24.5 1 0  24.75 1 0  25 1 0  0 1.25 0  0.25 1.25 0  0.5 1.25 0  0.75 1.25 0  1 1.25 0  1.25 1.25 0  1.5 1.25 0  1.75 1.25 0  2 1.25 0  2.25 1.25 0  2.5 1.25 0  2.75 1.25 0  3 1.25 0  3.25 1.25 0  3.5 1.25 0  3.75 1.25 0  4 1.25 0  4.25 1.25 0  4.5 1.25 0  4.75 1.25 0  5 1.25 0  5.25 1.25 0  5.5 1.25 0  5.75 1.25 0  6 1.25 0  6.25 1.25 0  6.5 1.25 0  6.75 1.25 0  7 1.25 0  7.25 1.25 0  7.5 1.25 0  7.75 1.25 0  8 1.25 0  8.25 1.25 0  8.5 1.25 0  8.75 1.25 0  9 1.25 0  9.25 1.25 0  9.5 1.25 0  9.75 1.25 0  10 1.25 0  10.25 1.25 0  10.5 1.25 0  10.75 1.25 0  11 1.25 0  11.25 1.25 0  11.5 1.25 0  11.75 1.25 0  12 1.25 0  12.25 1.25 0  12.5 1.25 0  12.75 1.25 0  13 1.25 0  13.25 1.25 0  13.5 1.25 0  13.75 1.25 0  14 1.25 0  14.25 1.25 0  14.5 1.25 0  14.75 1.25 0  15 1.25 0  15.25 1.25 0  15.5 1.25 0  15.75 1.25 0  16 1.25 0  16.25 1.25 0  16.5 1.25 0  16.75 1.25 0  17 1.25 0  17.25 1.25 0  17.5 1.25 0  17.75 1.25 0  18 1.25 0  18.25 1.25 0  18.5 1.25 0  18.75 1.25 0  19 1.25 0  19.25 1.25 0  19.5 1.25 0  19.75 1.25 0  20 1.25 0  20.25 1.25 0  20.5 1.25 0  20.75 1.25 0  21 1.25 0  21.25 1.25 0  21.5 1.25 0  21.75 1.25 0  22 1.25 0  22.25 1.25 0  22.5 1.25 0  22.75 1.25 0  23 1.25 0  23.25 1.25 0  23.5 1.25 0  23.75 1.25 0  24 1.25 0  24.25 1.25 0  24.5 1.25 0  24.75 1.25 0  25 1.25 0  0 1.5 0  0.25 1.5 0  0.5 1.5 0  0.75 1.5 0  1 1.5 0  1.25 1.5 0  1.5 1.5 0  1.75 1.5 0  2 1.5 0  2.25 1.5 0  2.5 1.5 0  2.75 1.5 0  3 1.5 0  3.25 1.5 0  3.5 1.5 0  3.75 1.5 0  4 1.5 0  4.25 1.5 0  4.5 1.5 0  4.75 1.5 0  5 1.5 0  5.25 1.5 0  5.5 1.5 0  5.75 1.5 0  6 1.5 0  6.25 1.5 0  6.5 1.5 0  6.75 1.5 0  7 1.5 0  7.25 1.5 0  7.5 1.5 0  7.75 1.5 0  8 1.5 0  8.25 1.5 0  8.5 1.5 0  8.75 1.5 0  9 1.5 0  9.25 1.5 0  9.5 1.5 0  9.75 1.5 0  10 1.5 0  10.25 1.5 0  10.5 1.5 0  10.75 1.5 0  11 1.5 0  11.25 1.5 0  11.5 1.5 0  11.75 1.5 0  12 1.5 0  12.25 1.5 0  12.5 1.5 0  12.75 1.5 0  13 1.5 0  13.25 1.5 0  13.5 1.5 0  13.75 1.5 0  14 1.5 0  14.25 1.5 0  14.5 1.5 0  14.75 1.5 0  15 1.5 0  15.25 1.5 0  15.5 1.5 0  15.75 1.5 0  16 1.5 0  16.25 1.5 0  16.5 1.5 0  16.75 1.5 0  17 1.5 0  17.25 1.5 0  17.5 1.5 0  17.75 1.5 0  18 1.5 0  18.25 1.5 0  18.5 1.5 0  18.75 1.5 0  19 1.5 0  19.25 1.5 0  19.5 1.5 0  19.75 1.5 0  20 1.5 0  20.25 1.5 0  20.5 1.5 0  20.75 1.5 0  21 1.5 0  21.25 1.5 0  21.5 1.5 0  21.75 1.5 0  22 1.5 0  22.25 1.5 0  22.5 1.5 0  22.75 1.5 0  23 1.5 0  23.25 1.5 0  23.5 1.5 0  23.75 1.5 0  24 1.5 0  24.25 1.5 0  24.5 1.5 0  24.75 1.5 0  25 1.5 0  0 1.75 0  0.25 1.75 0  0.5 1.75 0  0.75 1.75 0  1 1.75 0  1.25 1.75 0  1.5 1.75 0  1.75 1.75 0  2 1.75 0  2.25 1.75 0  2.5 1.75 0  2.75 1.75 0  3 1.75 0  3.25 1.75 0  3.5 1.75 0  3.75 1.75 0  4 1.75 0  4.25 1.75 0  4.5 1.75 0  4.75 1.75 0  5 1.75 0  5.25 1.75 0  5.5 1.75 0  5.75 1.75 0  6 1.75 0  6.25 1.75 0  6.5 1.75 0  6.75 1.75 0  7 1.75 0  7.25 1.75 0  7.5 1.75 0  7.75 1.75 0  8 1.75 0  8.25 1.75 0  8.5 1.75 0  8.75 1.75 0  9 1.75 0  9.25 1.75 0  9.5 1.75 0  9.75 1.75 0  10 1.75 0  10.25 1.75 0  10.5 1.75 0  10.75 1.75 0  11 1.75 0  11.25 1.75 0  11.5 1.75 0  11.75 1.75 0  12 1.75 0  12.25 1.75 0  12.5 1.75 0  12.75 1.75 0  13 1.75 0  13.25 1.75 0  13.5 1.75 0  13.75 1.75 0  14 1.75 0  14.25 1.75 0  14.5 1.75 0  14.75 1.75 0  15 1.75 0  15.25 1.75 0  15.5 1.75 0  15.75 1.75 0  16 1.75 0  16.25 1.75 0  16.5 1.75 0  16.75 1.75 0  17 1.75 0  17.25 1.75 0  17.5 1.75 0  17.75 1.75 0  18 1.75 0  18.25 1.75 0  18.5 1.75 0  18.75 1.75 0  19 1.75 0  19.25 1.75 0  19.5 1.75 0  19.75 1.75 0  20 1.75 0  20.25 1.75 0  20.5 1.75 0  20.75 1.75 0  21 1.75 0  21.25 1.75 0  21.5 1.75 0  21.75 1.75 0  22 1.75 0  22.25 1.75 0  22.5 1.75 0  22.75 1.75 0  23 1.75 0  23.25 1.75 0  23.5 1.75 0  23.75 1.75 0  24 1.75 0  24.25 1.75 0  24.5 1.75 0  24.75 1.75 0  25 1.75 0  0 2 0  0.25 2 0  0.5 2 0  0.75 2 0  1 2 0  1.25 2 0  1.5 2 0  1.75 2 0  2 2 0  2.25 2 0  2.5 2 0  2.75 2 0  3 2 0  3.25 2 0  3.5 2 0  3.75 2 0  4 2 0  4.25 2 0  4.5 2 0  4.75 2 0  5 2 0  5.25 2 0  5.5 2 0  5.75 2 0  6 2 0  6.25 2 0  6.5 2 0  6.75 2 0  7 2 0  7.25 2 0  7.5 2 0  7.75 2 0  8 2 0  8.25 2 0  8.5 2 0  8.75 2 0  9 2 0  9.25 2 0  9.5 2 0  9.75 2 0  10 2 0  10.25 2 0  10.5 2 0  10.75 2 0  11 2 0  11.25 2 0 
[...]
<PointData  Scalars="f_26"> 
<DataArray  type="Float64"  Name="f_26"  format="ascii">2.3774382893796313e-05  2.3772628291054219e-05  2.3768725026823955e-05  2.3762468607150053e-05  2.3753789730285830e-05  2.3742659408131621e-05  2.3729071753714491e-05  2.3713045923854924e-05  2.3694633375463792e-05  2.3673926397212064e-05  2.3651066197167781e-05  2.3626249456818324e-05  2.3599732508683635e-05  2.3571832478602581e-05  2.3542924939175245e-05  2.3513437866090279e-05  2.3483841967432354e-05  2.3454637747417589e-05  2.3426339942173446e-05  2.3399460194400955e-05  2.3374488984832043e-05  2.3351877884760841e-05  2.3332023119360020e-05  2.3315251239532846e-05  2.3301807425248155e-05  2.3291846655004614e-05  2.3285427762213053e-05  2.3282510327493309e-05  2.3282954430256567e-05  2.3286523429166574e-05  2.3292890039703532e-05  2.3301645929144460e-05  2.3312314830521404e-05  2.3324368844668355e-05  2.3337247252607220e-05  2.3350376888282636e-05  2.3363192971093152e-05  2.3375159273016118e-05  2.3385786575378223e-05  2.3394648527429262e-05  2.3401394227198868e-05  2.3405757082926014e-05  2.3407559761292465e-05  2.3406715268885874e-05  2.3403224429917043e-05  2.3397170203518759e-05  2.3388709419117039e-05  2.3378062593411664e-05  2.3365502525953742e-05  2.3351342353945625e-05  2.3335923685894708e-05  2.3319605337053827e-05  2.3302753069853135e-05  2.3285730615195532e-05  2.3268892131277396e-05  2.3252576157772222e-05  2.3237101049418441e-05  2.3222761818495964e-05  2.3209828264830644e-05  2.3198544205354141e-05  2.3189127520032702e-05  2.3181770613058402e-05  2.3176640779648654e-05  2.3173879923938227e-05  2.3173603150197708e-05  2.3175895980327706e-05  2.3180810314784200e-05  2.3188359669475273e-05  2.3198514563825150e-05  2.3211199085643785e-05  2.3226289553447236e-05  2.3243615859978928e-05  2.3262965613544380e-05  2.3284090732543416e-05  2.3306715809227640e-05  2.3330547399296412e-05  2.3355283408505827e-05  2.3380621886460222e-05  2.3406268738126779e-05  2.3431944072304669e-05  2.3457387090138744e-05  2.3482359560918081e-05  2.3506648033439618e-05  2.3530064990888468e-05  2.3552449179073006e-05  2.3573665326806424e-05  2.3593603439939726e-05  2.3612177795879656e-05  2.3629325703873604e-05  2.3645006038828578e-05  2.3659197512710456e-05  2.3671896624759391e-05  2.3683115233210716e-05  2.3692877715871253e-05  2.3701217728924400e-05  2.3708174621041541e-05  2.3713789590276430e-05  2.3718101624453307e-05  2.3721142928031053e-05  2.3722931990596793e-05  2.3723455372741816e-05  2.3771839617518598e-05  2.3770480660085211e-05  2.3766683775693550e-05  2.3760470595406152e-05  2.3751823173347896e-05  2.3740725904923759e-05  2.3727177346195087e-05  2.3711198718846392e-05  2.3692842761043775e-05  2.3672202663460229e-05  2.3649420246845458e-05  2.3624692516374540e-05  2.3598275816747209e-05  2.3570486953190210e-05  2.3541700835314929e-05  2.3512344440275521e-05  2.3482887166606183e-05  2.3453827939080508e-05  2.3425679699645058e-05  2.3398952148060874e-05  2.3374133746641725e-05  2.3351674049260825e-05  2.3331967339333721e-05  2.3315338368960241e-05  2.3302030717175034e-05  2.3292197998922732e-05  2.3285897945329313e-05  2.3283089306616343e-05  2.3283631604663140e-05  2.3287287908046673e-05  2.3293730899396957e-05  2.3302552455163415e-05  2.3313276738054285e-05  2.3325376470058836e-05  2.3338291708178476e-05  2.3351450174236322e-05  2.3364288040865592e-05  2.3376270051842506e-05  2.3386907935217619e-05  2.3395776224282989e-05  2.3402524808897973e-05  2.3406887776592121e-05  2.3408688349967772e-05  2.3407839966415512e-05  2.3404343762180249e-05  2.3398282902658367e-05  2.3389814335631407e-05  2.3379158629003353e-05  2.3366588588069471e-05  2.3352417331203875e-05  2.3336986442262162e-05  2.3320654721792630e-05  2.3303787939877550e-05  2.3286749866371020e-05  2.3269894735102675e-05  2.3253561199555505e-05  2.3238067763387746e-05  2.3223709614417063e-05  2.3210756740079365e-05  2.3199453136636547e-05  2.3190016830679655e-05  2.3182640315324532e-05  2.3177490896395604e-05  2.3174710399440884e-05  2.3174413764013173e-05  2.3176686279604376e-05  2.3181579578081434e-05  2.3189106909314661e-05  2.3199238567323885e-05  2.3211898485055520e-05  2.3226962913526923e-05  2.3244261768018716e-05  2.3263582760439481e-05  2.3284677977896520e-05  2.3307272228455265e-05  2.3331072314529233e-05  2.3355776407140893e-05  2.3381082831612939e-05  2.3406697774426163e-05  2.3432341629035894e-05  2.3457753882136123e-05  2.3482696586210812e-05  2.3506956565712008e-05  2.3530346564484924e-05  2.3552705564575384e-05  2.3573898496037916e-05  2.3593815520431285e-05  2.3612371016172385e-05  2.3629502332335938e-05  2.3645168319782738e-05  2.3659347604478464e-05  2.3672036544718023e-05  2.3683246815189035e-05  2.3693002585658404e-05  2.3701337305656536e-05  2.3708290160549736e-05  2.3713902319359165e-05  2.3718213149903414e-05  2.3721256694394418e-05  2.3723059306710858e-05  2.3723642937181708e-05  2.3765605943591293e-05  2.3764355435603345e-05  2.3760650622953093e-05  2.3754514341138988e-05  2.3745945210232350e-05  2.3734938309621275e-05  2.3721498673321192e-05  2.3705651970809023e-05  2.3687454374303626e-05  2.3667001840880508e-05  2.3644438336268835e-05  2.3619962314229379e-05  2.3593830758745846e-05  2.3566360196845242e-05  2.3537924263915669e-05  2.3508947633534288e-05  2.3479896392146406e-05  2.3451265222167314e-05  2.3423562026558853e-05  2.3397290851793570e-05  2.3372934112520810e-05  2.3350935162833098e-05  2.3331682179785267e-05  2.3315494130147430e-05  2.3302609318568445e-05  2.3293176735424739e-05  2.3287250222308686e-05  2.3284785415381661e-05  2.3285639509809418e-05  2.3289574034102888e-05  2.3296260912964186e-05  2.3305292037519341e-05  2.3316192334527948e-05  2.3328435992005978e-05  2.3341465156524168e-05  2.3354710153101929e-05  2.3367610135611276e-05  2.3379633055924828e-05  2.3390293922100622e-05  2.3399170472186776e-05  2.3405915596055913e-05  2.3410266072161280e-05  2.3412047430468596e-05  2.3411174989526206e-05  2.3407651329054521e-05  2.3401560637026375e-05  2.3393060503283537e-05  2.3382371815449012e-05  2.3369767445856006e-05  2.3355560402192393e-05  2.3340092054593518e-05  2.3323720956654582e-05  2.3306812659575372e-05  2.3289730792435074e-05  2.3272829562889854e-05  2.3256447733654045e-05  2.3240904055956278e-05  2.3226494086638079e-05  2.3213488265971142e-05  2.3202131069751511e-05  2.3192640958963593e-05  2.3185210738302862e-05  2.3180007831400471e-05  2.3177173937802192e-05  2.3176823610723350e-05  2.3179041517214057e-05  2.3183878494646983e-05  2.3191346920396390e-05  2.3201416245387466e-05  2.3214009690518609e-05  2.3229003005273057e-05  2.3246225861504003e-05  2.3265466000040664e-05  2.3286475795612358e-05  2.3308980570361926e-05  2.3332687826057595e-05  2.3357296575777358e-05  2.3382506089985550e-05  2.3408023568169714e-05  2.3433570453290173e-05  2.3458887289112695e-05  2.3483737164831881e-05  2.3507907893399597e-05  2.3531213130972911e-05  2.3553492668133967e-05  2.3574612113626037e-05  2.3594462154856541e-05  2.3612957525145833e-05  2.3630035746159260e-05  2.3645655656105466e-05  2.3659795689957216e-05  2.3672451854429615e-05  2.3683635341420330e-05  2.3693369748772210e-05  2.3701687922661736e-05  2.3708628495679874e-05  2.3714232264402661e-05  2.3718538636113186e-05  2.3721582513136897e-05  2.3723392263833672e-05  2.3723989788324899e-05  2.3755560275078511e-05  2.3754355009493560e-05  2.3750726846068957e-05  2.3744685478125418e-05  2.3736232102811296e-05  2.3725367800013137e-05  2.3712103659088253e-05  2.3696470877019073e-05  2.3678530571847859e-05  2.3658382990863466e-05  2.3636175572734057e-05  2.3612109210869220e-05  2.3586442068210076e-05  2.3559490387681423e-05  2.3531625909070587e-05  2.3503269726104877e-05  2.3474882678411007e-05  2.3446952648313048e-05  2.3419979393653306e-05  2.3394457763467665e-05  2.3370860281683857e-05  2.3349620117761255e-05  2.3331115377123153e-05  2.3315655445929438e-05  2.3303469854710566e-05  2.3294699856924134e-05  2.3289392736825151e-05  2.3287498822921756e-05  2.3288871278327638e-05  2.3293268883783103e-05  2.3300362105828738e-05  2.3309742665504960e-05  2.3320936582985660e-05  2.3333420336629092e-05  2.3346639439222858e-05  2.3360028480981137e-05  2.3373031556610824e-05  2.3385121981430203e-05  2.3395820286794482e-05  2.3404709641167774e-05  2.3411448046505841e-05  2.3415776890244954e-05  2.3417525673026771e-05  2.3416612964282427e-05  2.3413043846716115e-05  2.3406904284378165e-05  2.3398352978983657e-05  2.3387611360749834e-05  2.3374952391961770e-05  2.3360688845441798e-05  2.3345161660955941e-05  2.3328728888705310e-05  2.3311755612366453e-05  2.3294605119341703e-05  2.3277631468159305e-05  2.3261173504534392e-05  2.3245550303713035e-05  2.3231057962834058e-05  2.3217967619201986e-05  2.3206524510340388e-05  2.3196947806763693e-05  2.3189430842797505e-05  2.3184141273079901e-05  2.3181220642420564e-05  2.3180782928564955e-05  2.3182911832182323e-05  2.3187656928217441e-05  2.3195029181719979e-05  2.3204996653743289e-05  2.3217481366230484e-05  2.3232358198047369e-05  2.3249456367558039e-05  2.3268563614405304e-05  2.3289432752360656e-05  2.3311789936858490e-05  2.3335343832337801e-05  2.3359794872670344e-05  2.3384843937578849e-05  2.3410199959728945e-05  2.3435586180097251e-05  2.3460744950495834e-05  2.3485441126242362e-05  2.3509464194513223e-05  2.3532629345748768e-05  2.3554777719545091e-05  2.3575776047247301e-05  2.3595515877470066e-05  2.3613912516800128e-05  2.3630903756474123e-05  2.3646448397815769e-05  2.3660524544508273e-05  2.3673127605698901e-05  2.3684267954287402e-05  2.3693968209434706e-05  2.3702260157686834e-05  2.3709181387082799e-05  2.3714771776632511e-05  2.3719070054233865e-05  2.3722110701321324e-05  2.3723921497607434e-05  2.3724521741799265e-05  2.3741763383354578e-05  2.3740590260727804e-05  2.3737037376018513e-05  2.3731107986702537e-05  2.3722803917647490e-05  2.3712130580237994e-05  2.3699104872458453e-05  2.3683764206225573e-05  2.3666175759696361e-05  2.3646445279008561e-05  2.3624724762699372e-05  2.3601218353998013e-05  2.3576185807679341e-05  2.3549943004001449e-05  2.3522859149844197e-05  2.3495350526092975e-05  2.3467870893963205e-05  2.3440898938845161e-05  2.3414923380828539e-05  2.3390426585434939e-05  2.3367867634829246e-05  2.3347665842065825e-05  2.3330185595076242e-05  2.3315723214118007e-05  2.3304496241280529e-05  2.3296635329293117e-05  2.3292178741651888e-05  2.3291069464452780e-05  2.3293155040236490e-05  2.3298190375018477e-05  2.3305843827175911e-05  2.3315706785918254e-05  2.3327306690791688e-05  2.3340123104288292e-05  2.3353606123732285e-05  2.3367196180959114e-05  2.3380344160685996e-05  2.3392530765953655e-05  2.3403284148524547e-05  2.3412194977904175e-05  2.3418928322612868e-05  2.3423231942766648e-05  2.3424940826692189e-05  2.3423978029814080e-05  2.3420352076739317e-05  2.3414151355623235e-05  2.3405536059504017e-05  2.3394728307919283e-05  2.3382001112520528e-05  2.3367666834213619e-05  2.3352065721209944e-05  2.3335555025275840e-05  2.3318499078908767e-05  2.3301260593358056e-05  2.3284193321187759e-05  2.3267636129563046e-05  2.3251908457170409e-05  2.3237307074827125e-05  2.3224104024401672e-05  2.3212545555250495e-05  2.3202851799415574e-05  2.3195216829596135e-05  2.3189808653810513e-05  2.3186768664584892e-05  2.3186210129838698e-05  2.3188215517304983e-05  2.3192832767836356e-05  2.3200071003370313e-05  2.3209896462475360e-05  2.3222229592537716e-05  2.3236944134107628e-05  2.3253868728300500e-05  2.3272791151883538e-05  2.3293464859068870e-05  2.3315617190464988e-05  2.3338958453920674e-05  2.3363191087333290e-05  2.3388018237476393e-05  2.3413151274931927e-05  2.3438315963966476e-05  2.3463257185364147e-05  2.3487742253914565e-05  2.3511562975359865e-05  2.3534536650357441e-05  2.3556506257993331e-05  2.3577340042912978e-05  2.3596930694695698e-05  2.3615194254457792e-05  2.3632068822291382e-05  2.3647513080936697e-05  2.3661504605867249e-05  2.3674037907068500e-05  2.3685122147044620e-05  2.3694778502905828e-05  2.3703037183964336e-05  2.3709934173289325e-05  2.3715507823148173e-05  2.3719795488785135e-05  2.3722830414667600e-05  2.3724639055645311e-05  2.3725238855368597e-05  2.3724359254022210e-05  2.3723217412356869e-05  2.3719746259785467e-05  2.3713947491763879e-05  2.3705824675337507e-05  2.3695387686062533e-05  2.3682659536684467e-05  2.3667684517318488e-05  2.3650536760041879e-05  2.3631328457781533e-05  2.3610217012500651e-05  2.3587410424373354e-05  2.3563170302846205e-05  2.3537811999488239e-05  2.3511701533733058e-05  2.3485249198761256e-05  2.3458899981102383e-05  2.3433121182897532e-05  2.3408387873682212e-05  2.3385166988826037e-05  2.3363901003454130e-05  2.3344992117899165e-05  2.3328787782439171e-05  2.3315568181125321e-05  2.3305536037475205e-05  2.3298808876926644e-05  2.3295413759523500e-05  2.3295284516292006e-05  2.3298261648033812e-05  2.3304095178363244e-05  2.3312450784782091e-05  2.3322919401684791e-05  2.3335030214872948e-05  2.3348266627097670e-05  2.3362084461868388e-05  2.3375931454718456e-05  2.3389266981203237e-05  2.3401580979931744e-05  2.3412411123220322e-05  2.3421357443130431e-05  2.3428093816380551e-05  2.3432375930611333e-05  2.3434045580509114e-05  2.3433031359755915e-05  2.3429346009696293e-05  2.3423080846906046e-05  2.3414397811968198e-05  2.3403519756592159e-05  2.3390719614611313e-05  2.3376309085911519e-05  2.3360627405346192e-05  2.3344030678764368e-05  2.3326882156370823e-05  2.3309543693400675e-05  2.3292368533919121e-05  2.3275695457411332e-05  2.3259844255551752e-05  2.3245112455107799e-05  2.3231773160464279e-05  2.3220073839341144e-05  2.3210235805596013e-05  2.3202454065749687e-05  2.3196897114894066e-05  2.3193706236303091e-05  2.3192993925499732e-05  2.3194841252198740e-05  2.3199294277507631e-05  2.3206359991803482e-05  2.3216002527181351e-05  2.3228140525515559e-05  2.3242646453117581e-05  2.3259348362628636e-05  2.3278034196165545e-05  2.3298458316443560e-05  2.3320349645918325e-05  2.3343420641968631e-05  2.3367376338465411e-05  2.3391922801573250e-05  2.3416774526933489e-05  2.3441660499194436e-05  2.3466328811475059e-05  2.3490549885442173e-05  2.3514118436338623e-05  2.3536854391027569e-05  2.3558602993064274e-05  2.3579234321127557e-05  2.3598642412271813e-05  2.3616744128151956e-05  2.3633477841054176e-05  2.3648801958083401e-05  2.3662693255980496e-05  2.3675144973063515e-05  2.3686164602527348e-05  2.3695771352683321e-05  2.3703993280742931e-05  2.3710864160261990e-05  2.3716420198637653e-05  2.3720696768220479e-05  2.3723725338409947e-05  2.3725530780855131e-05  2.3726129161178873e-05  2.3703551151157174e-05  2.3702442962720711e-05  2.3699063232166795e-05  2.3693414585965874e-05  2.3685503667943216e-05  2.3675345519405126e-05  2.3662969843757097e-05  2.3648428456356926e-05  2.3631803161814699e-05  2.3613213310034772e-05  2.3592822307203531e-05  2.3570842403995552e-05  2.3547537165426255e-05  2.3523221154236744e-05  2.3498256533381419e-05  2.3473046506218819e-05  2.3448025751485108e-05  2.3423648253885182e-05  2.3400373154548517e-05  2.3378649419047010e-05  2.3358900213838517e-05  2.3341507870701222e-05  2.3326800195911424e-05  2.3315038668860489e-05  2.3306408830341251e-05  2.3301012963248797e-05  2.3298865087286758e-05  2.3299888343702508e-05  2.3303914984494327e-05  2.3310689300063184e-05  2.3319873819587074e-05  2.3331058956113534e-05  2.3343775976374062e-05  2.3357512837764697e-05  2.3371732140394711e-05  2.3385890247162108e-05  2.3399456544805735e-05  2.3411931840417908e-05  2.3422864987045387e-05  2.3431866986079381e-05  2.3438622004767813e-05  2.3442894958610123e-05  2.3444535525492564e-05  2.3443478666480231e-05  2.3439741914026973e-05  2.3433419841623155e-05  2.3424676242584782e-05  2.3413734616029352e-05  2.3400867584068375e-05  2.3386385847333132e-05  2.3370627230220936e-05  2.3353946279822920e-05  2.3336704773730398e-05  2.3319263374825971e-05  2.3301974559613744e-05  2.3285176852376075e-05  2.3269190326588044e-05  2.3254313285390690e-05  2.3240819993869966e-05  2.3228959292125948e-05  2.3218953857646288e-05  2.3210999809378134e-05  2.3205266275153364e-05  2.3201894518178812e-05  2.3200996281565000e-05  2.3202651189074884e-05  2.3206903322177006e-05  2.3213757416150896e-05  2.3223175385205949e-05  2.3235074003322717e-05  2.3249324481140972e-05  2.3265754404766306e-05  2.3284152117787075e-05  2.3304273241175633e-05  2.3325848732642063e-05  2.3348593739440586e-05  2.3372216497877970e-05  2.3396426643251626e-05  2.3420942465858779e-05  2.3445496837056641e-05  2.3469841703093388e-05  2.3493751186788703e-05  2.3517023441323368e-05  2.3539481465116825e-05  2.3560973113708149e-05  2.3581370537678130e-05  2.3600569241346084e-05  2.3618486903979642e-05  2.3635062043947677e-05  2.3650252547402318e-05  2.3664034036389662e-05  2.3676398024007601e-05  2.3687349800162505e-05  2.3696906010533505e-05  2.3705091929641041e-05  2.3711938479319915e-05  2.3717479096987143e-05  2.3721746603236427e-05  2.3724770245190880e-05  2.3726573094051439e-05  2.3727169957420104e-05  2.3679594947665540e-05  2.3678523567966603e-05  2.3675245834538554e-05  2.3669766533925824e-05  2.3662096360928099e-05  2.3652256218580705e-05  2.3640283067944421e-05  2.3626236785198630e-05  2.3610207367625640e-05  2.3592321789754440e-05  2.3572749816312095e-05  2.3551708123416473e-05  2.3529462166438117e-05  2.3506325364574135e-05  2.3482655346368748e-05  2.3458847209363815e-05  2.3435323976931378e-05  2.3412524666406230e-05  2.3390890589711777e-05  2.3370850661498190e-05  2.3352806560976298e-05  2.3337118560690166e-05  2.3324092697037314e-05  2.3313969743536146e-05  2.3306916221744680e-05  2.3303017524773269e-05  2.3302273192411793e-05  2.3304594465821315e-05  2.3309804396409714e-05  2.3317640882418285e-05  2.3327762969973694e-05  2.3339760559271254e-05  2.3353167349304476e-05  2.3367476523839798e-05  2.3382158408688768e-05  2.3396679161285565e-05  2.3410519494776025e-05  2.3423192473109847e-05  2.3434259517284638e-05  2.3443343915217555e-05  2.3450141312419984e-05  2.3454426863526926e-05  2.3456058931808984e-05  2.3454979421322913e-05  2.3451211002051016e-05  2.3444851632654755e-05  2.3436066891944556e-05  2.3425080695457996e-05  2.3412164996764409e-05  2.3397629055646938e-05  2.3381808800940994e-05  2.3365056731168470e-05  2.3347732690928018e-05  2.3330195747601845e-05  2.3312797284588965e-05  2.3295875335434825e-05  2.3279750114258067e-05  2.3264720650431453e-05  2.3251062400181473e-05  2.3239025670562388e-05  2.3228834640542808e-05  2.3220686699643557e-05  2.3214751764760907e-05  2.3211171215687555e-05  2.3210056149761981e-05  2.3211484820841709e-05  2.3215499385909162e-05  2.3222102377829473e-05  2.3231253566898528e-05  2.3242867979157636e-05  2.3256815756822717e-05  2.3272924288675938e-05  2.3290982677328601e-05  2.3310748245926643e-05  2.3331954508530504e-05  2.3354319885887626e-05  2.3377556444567012e-05  2.3401378040630059e-05  2.3425507413172714e-05  2.3449681955610084e-05  2.3473658063212561e-05  2.3497214096907136e-05  2.3520152108010701e-05  2.3542298534257007e-05  2.3563504105399925e-05  2.3583643190590382e-05  2.3602612785967844e-05  2.3620331288186683e-05  2.3636737138236937e-05  2.3651787360611654e-05  2.3665455975233697e-05  2.3677732230784118e-05  2.3688618601990471e-05  2.3698128510026790e-05  2.3706283760720040e-05  2.3713111742936320e-05  2.3718642480474274e-05  2.3722905675511269e-05  2.3725927911778533e-05  2.3727730196503789e-05  2.3728326013840565e-05  2.3652796247050624e-05  2.3651764796998414e-05  2.3648599308847582e-05  2.3643307338308425e-05  2.3635904229647755e-05  2.3626417239316560e-05  2.3614890986903470e-05  2.3601393749602096e-05  2.3586024003162004e-05  2.3568916559021255e-05  2.3550247644646909e-05  2.3530238317827664e-05  2.3509155694912419e-05  2.3487311606455005e-05  2.3465058466958949e-05  2.3442782349415124e-05  2.3420893475860944e-05  2.3399814552468099e-05  2.3379967566457159e-05  2.3361759793394337e-05  2.3345569809194739e-05  2.3331734244132790e